vasp.5.3.5 31Mar14 (build Feb 16 2017 14:01:14) complex git commit undefined                        
 executed on       Monch_standard date 2020.04.24  00:03:09
 running on   72 total cores
 distrk:  each k-point on   72 cores,    1 groups
 distr:  one band on NCORES_PER_BAND=  12 cores,    6 groups


--------------------------------------------------------------------------------------------------------


 INCAR:
 POTCAR:    PAW_PBE Ba_sv 06Sep2000               
 POTCAR:    PAW_PBE Mg_pv 13Apr2007               
 POTCAR:    PAW_PBE Re_pv 06Sep2000               
 POTCAR:    PAW_PBE O 08Apr2002                   
 POTCAR:    PAW_PBE Ba_sv 06Sep2000               
   VRHFIN =Ba: 5s5p6s                                                           
   LEXCH  = PE                                                                  
   EATOM  =   700.8560 eV,   51.5115 Ry                                         
                                                                                
   TITEL  = PAW_PBE Ba_sv 06Sep2000                                             
   LULTRA =        F    use ultrasoft PP ?                                      
   IUNSCR =        1    unscreen: 0-lin 1-nonlin 2-no                           
   RPACOR =    2.400    partial core radius                                     
   POMASS =  137.327; ZVAL   =   10.000    mass and valenz                      
   RCORE  =    2.800    outmost cutoff radius                                   
   RWIGS  =    3.740; RWIGS  =    1.979    wigner-seitz radius (au A)           
   ENMAX  =  187.181; ENMIN  =  140.386 eV                                      
   RCLOC  =    2.516    cutoff for local pot                                    
   LCOR   =        T    correct aug charges                                     
   LPAW   =        T    paw PP                                                  
   EAUG   =  351.165                                                            
   DEXC   =    0.000                                                            
   RMAX   =    2.865    core radius for proj-oper                               
   RAUG   =    1.300    factor for augmentation sphere                          
   RDEP   =    2.976    radius for radial grids                                 
   RDEPT  =    2.289    core radius for aug-charge                              
                                                                                
   Atomic configuration                                                         
   13 entries                                                                   
     n  l   j            E        occ.                                          
     1  0  0.50    -37249.5946   2.0000                                         
     2  0  0.50     -5887.1925   2.0000                                         
     2  1  1.50     -5278.3977   6.0000                                         
     3  0  0.50     -1242.7293   2.0000                                         
     3  1  1.50     -1047.6609   6.0000                                         
     3  2  2.50      -764.6158  10.0000                                         
     4  0  0.50      -243.8228   2.0000                                         
     4  1  1.50      -180.9218   6.0000                                         
     4  2  2.50       -89.6477  10.0000                                         
     5  0  0.50       -33.6549   2.0000                                         
     6  0  0.50        -3.2247   1.9900                                         
     5  1  1.50       -18.7193   6.0000                                         
     5  2  2.50        -2.0115   0.0100                                         
   Description                                                                  
     l       E           TYP  RCUT    TYP  RCUT                                 
     0    -33.6549039     23  2.800                                             
     0     -3.2246942     23  2.800                                             
     1    -18.7193050     23  2.700                                             
     1     27.2116520     23  2.700                                             
     2     -2.0115002     23  2.700                                             
     2      0.3057420     23  2.700                                             
  local pseudopotential read in
  partial core-charges read in
  partial kinetic energy density read in
  atomic valenz-charges read in
  non local Contribution for L=           0  read in
    real space projection operators read in
  non local Contribution for L=           0  read in
    real space projection operators read in
  non local Contribution for L=           1  read in
    real space projection operators read in
  non local Contribution for L=           1  read in
    real space projection operators read in
  non local Contribution for L=           2  read in
    real space projection operators read in
  non local Contribution for L=           2  read in
    real space projection operators read in
    PAW grid and wavefunctions read in
 
   number of l-projection  operators is LMAX  =           6
   number of lm-projection operators is LMMAX =          18
 
 POTCAR:    PAW_PBE Mg_pv 13Apr2007               
   VRHFIN =Mg: p6s2                                                             
   LEXCH  = PE                                                                  
   EATOM  =  1056.7344 eV,   77.6678 Ry                                         
                                                                                
   TITEL  = PAW_PBE Mg_pv 13Apr2007                                             
   LULTRA =        F    use ultrasoft PP ?                                      
   IUNSCR =        1    unscreen: 0-lin 1-nonlin 2-no                           
   RPACOR =    1.500    partial core radius                                     
   POMASS =   24.305; ZVAL   =    8.000    mass and valenz                      
   RCORE  =    2.000    outmost cutoff radius                                   
   RWIGS  =    2.000; RWIGS  =    1.058    wigner-seitz radius (au A)           
   ENMAX  =  403.929; ENMIN  =  302.947 eV                                      
   RCLOC  =    1.506    cutoff for local pot                                    
   LCOR   =        T    correct aug charges                                     
   LPAW   =        T    paw PP                                                  
   EAUG   =  758.780                                                            
   DEXC   =    0.000                                                            
   RMAX   =    2.045    core radius for proj-oper                               
   RAUG   =    1.300    factor for augmentation sphere                          
   RDEP   =    2.025    radius for radial grids                                 
   RDEPT  =    1.557    core radius for aug-charge                              
                                                                                
   Atomic configuration                                                         
    5 entries                                                                   
     n  l   j            E        occ.                                          
     1  0  0.50     -1259.6230   2.0000                                         
     2  0  0.50       -79.8442   2.0000                                         
     2  1  1.50       -46.6121   6.0000                                         
     3  0  0.50        -4.7055   2.0000                                         
     3  2  1.50        -1.3606   0.0000                                         
   Description                                                                  
     l       E           TYP  RCUT    TYP  RCUT                                 
     1    -46.6121073     23  1.600                                             
     1      2.7211652     23  1.600                                             
     0     -4.7054661     23  2.000                                             
     0     61.2262170     23  2.000                                             
     2     -1.3605826     23  2.000                                             
  local pseudopotential read in
  partial core-charges read in
  partial kinetic energy density read in
  atomic valenz-charges read in
  non local Contribution for L=           1  read in
    real space projection operators read in
  non local Contribution for L=           1  read in
    real space projection operators read in
  non local Contribution for L=           0  read in
    real space projection operators read in
  non local Contribution for L=           0  read in
    real space projection operators read in
  non local Contribution for L=           2  read in
    real space projection operators read in
    PAW grid and wavefunctions read in
 
   number of l-projection  operators is LMAX  =           5
   number of lm-projection operators is LMMAX =          13
 
 POTCAR:    PAW_PBE Re_pv 06Sep2000               
   VRHFIN =Re: 5p6s5d                                                           
   LEXCH  = PE                                                                  
   EATOM  =  1505.3444 eV,  110.6397 Ry                                         
                                                                                
   TITEL  = PAW_PBE Re_pv 06Sep2000                                             
   LULTRA =        F    use ultrasoft PP ?                                      
   IUNSCR =        1    unscreen: 0-lin 1-nonlin 2-no                           
   RPACOR =    2.250    partial core radius                                     
   POMASS =  186.207; ZVAL   =   13.000    mass and valenz                      
   RCORE  =    2.500    outmost cutoff radius                                   
   RWIGS  =    2.710; RWIGS  =    1.434    wigner-seitz radius (au A)           
   ENMAX  =  226.216; ENMIN  =  169.662 eV                                      
   RCLOC  =    2.105    cutoff for local pot                                    
   LCOR   =        T    correct aug charges                                     
   LPAW   =        T    paw PP                                                  
   EAUG   =  370.280                                                            
   DEXC   =    0.000                                                            
   RMAX   =    2.555    core radius for proj-oper                               
   RAUG   =    1.300    factor for augmentation sphere                          
   RDEP   =    2.550    radius for radial grids                                 
   RDEPT  =    2.135    core radius for aug-charge                              
                                                                                
   Atomic configuration                                                         
   15 entries                                                                   
     n  l   j            E        occ.                                          
     1  0  0.50    -71633.0044   2.0000                                         
     2  0  0.50    -12416.1217   2.0000                                         
     2  1  1.50    -10832.4225   6.0000                                         
     3  0  0.50     -2872.9330   2.0000                                         
     3  1  1.50     -2406.1720   6.0000                                         
     3  2  2.50     -1877.8916  10.0000                                         
     4  0  0.50      -597.8463   2.0000                                         
     4  1  1.50      -444.7999   6.0000                                         
     4  2  2.50      -252.9937  10.0000                                         
     4  3  3.50       -40.1243  14.0000                                         
     5  0  0.50       -83.0609   2.0000                                         
     5  1  1.50       -44.9781   6.0000                                         
     5  2  2.50        -4.0055   6.0000                                         
     6  0  0.50        -5.2962   1.0000                                         
     5  3  2.50        -1.3606   0.0000                                         
   Description                                                                  
     l       E           TYP  RCUT    TYP  RCUT                                 
     1    -44.9781306     23  2.500                                             
     1     -4.0817478     23  2.500                                             
     2     -4.0054946     23  2.500                                             
     2     -2.6236529     23  2.500                                             
     0     -5.2961845     23  2.500                                             
     0      4.1641164     23  2.500                                             
  local pseudopotential read in
  partial core-charges read in
  partial kinetic energy density read in
  atomic valenz-charges read in
  non local Contribution for L=           1  read in
    real space projection operators read in
  non local Contribution for L=           1  read in
    real space projection operators read in
  non local Contribution for L=           2  read in
    real space projection operators read in
  non local Contribution for L=           2  read in
    real space projection operators read in
  non local Contribution for L=           0  read in
    real space projection operators read in
  non local Contribution for L=           0  read in
    real space projection operators read in
    PAW grid and wavefunctions read in
 
   number of l-projection  operators is LMAX  =           6
   number of lm-projection operators is LMMAX =          18
 
 POTCAR:    PAW_PBE O 08Apr2002                   
   VRHFIN =O: s2p4                                                              
   LEXCH  = PE                                                                  
   EATOM  =   432.3788 eV,   31.7789 Ry                                         
                                                                                
   TITEL  = PAW_PBE O 08Apr2002                                                 
   LULTRA =        F    use ultrasoft PP ?                                      
   IUNSCR =        1    unscreen: 0-lin 1-nonlin 2-no                           
   RPACOR =    1.200    partial core radius                                     
   POMASS =   16.000; ZVAL   =    6.000    mass and valenz                      
   RCORE  =    1.520    outmost cutoff radius                                   
   RWIGS  =    1.550; RWIGS  =    0.820    wigner-seitz radius (au A)           
   ENMAX  =  400.000; ENMIN  =  300.000 eV                                      
   ICORE  =        2    local potential                                         
   LCOR   =        T    correct aug charges                                     
   LPAW   =        T    paw PP                                                  
   EAUG   =  605.392                                                            
   DEXC   =    0.000                                                            
   RMAX   =    1.553    core radius for proj-oper                               
   RAUG   =    1.300    factor for augmentation sphere                          
   RDEP   =    1.550    radius for radial grids                                 
   RDEPT  =    1.329    core radius for aug-charge                              
                                                                                
   Atomic configuration                                                         
    4 entries                                                                   
     n  l   j            E        occ.                                          
     1  0  0.50      -514.6923   2.0000                                         
     2  0  0.50       -23.9615   2.0000                                         
     2  1  0.50        -9.0305   4.0000                                         
     3  2  1.50        -9.5241   0.0000                                         
   Description                                                                  
     l       E           TYP  RCUT    TYP  RCUT                                 
     0    -23.9615318     23  1.200                                             
     0     -9.5240782     23  1.200                                             
     1     -9.0304911     23  1.520                                             
     1      8.1634956     23  1.520                                             
     2     -9.5240782      7  1.500                                             
  local pseudopotential read in
  partial core-charges read in
  partial kinetic energy density read in
  kinetic energy density of atom read in
  atomic valenz-charges read in
  non local Contribution for L=           0  read in
    real space projection operators read in
  non local Contribution for L=           0  read in
    real space projection operators read in
  non local Contribution for L=           1  read in
    real space projection operators read in
  non local Contribution for L=           1  read in
    real space projection operators read in
    PAW grid and wavefunctions read in
 
   number of l-projection  operators is LMAX  =           4
   number of lm-projection operators is LMMAX =           8
 

 ----------------------------------------------------------------------------- 
|                                                                             |
|  ADVICE TO THIS USER RUNNING 'VASP/VAMP'   (HEAR YOUR MASTER'S VOICE ...):  |
|                                                                             |
|      You have a (more or less) 'large supercell' and for larger cells       |
|      it might be more efficient to use real space projection opertators     |
|      So try LREAL= Auto  in the INCAR   file.                               |
|      Mind: At the moment your POTCAR file does not contain real space       |
|       projectors, and has to be modified,  BUT if you                       |
|      want to do an extremely  accurate calculation you might also keep the  |
|      reciprocal projection scheme          (i.e. LREAL=.FALSE.)             |
|                                                                             |
 ----------------------------------------------------------------------------- 

  PAW_PBE Ba_sv 06Sep2000               :
 energy of atom  1       EATOM= -700.8560
 kinetic energy error for atom=    0.0003 (will be added to EATOM!!)
  PAW_PBE Mg_pv 13Apr2007               :
 energy of atom  2       EATOM=-1056.7344
 kinetic energy error for atom=    0.0221 (will be added to EATOM!!)
  PAW_PBE Re_pv 06Sep2000               :
 energy of atom  3       EATOM=-1505.3444
 kinetic energy error for atom=    0.0012 (will be added to EATOM!!)
  PAW_PBE O 08Apr2002                   :
 energy of atom  4       EATOM= -432.3788
 kinetic energy error for atom=    0.0168 (will be added to EATOM!!)
 
 
 POSCAR: 139_1                                   
  positions in direct lattice
  velocities in cartesian coordinates
 exchange correlation table for  LEXCH =        8
   RHO(1)=    0.500       N(1)  =     2000
   RHO(2)=  100.500       N(2)  =     4000
 


--------------------------------------------------------------------------------------------------------


 ion  position               nearest neighbor table
   1  0.000  0.500  0.250-  10 2.90  10 2.90  20 2.90  19 2.90  11 2.90  11 2.90  17 2.90  18 2.90
                            13 2.90  14 2.90  16 2.90  15 2.90   5 3.55   7 3.55   7 3.55   5 3.55
   2  0.000  0.500  0.750-   9 2.90   9 2.90  19 2.90  20 2.90  12 2.90  12 2.90  18 2.90  17 2.90
                            14 2.90  13 2.90  15 2.90  16 2.90   5 3.55   7 3.55   7 3.55   5 3.55
   3  0.500  0.000  0.250-  11 2.90  11 2.90  14 2.90  13 2.90  10 2.90  10 2.90  16 2.90  15 2.90
                            19 2.90  20 2.90  17 2.90  18 2.90   8 3.55   6 3.55   8 3.55   6 3.55
   4  0.500  0.000  0.750-  12 2.90  12 2.90  13 2.90  14 2.90   9 2.90   9 2.90  15 2.90  16 2.90
                            20 2.90  19 2.90  18 2.90  17 2.90   8 3.55   6 3.55   8 3.55   6 3.55
   5  0.000  0.000  0.500-  19 2.12  20 2.12   9 2.14  10 2.14  18 2.16  17 2.16   2 3.55   1 3.55
                             2 3.55   1 3.55   4 3.55   4 3.55   3 3.55   3 3.55
   6  0.500  0.500  0.000-  14 2.12  13 2.12  12 2.14  11 2.14  16 2.16  15 2.16   3 3.55   4 3.55
                             3 3.55   4 3.55   1 3.55   2 3.55   1 3.55   2 3.55
   7  0.000  0.000  0.000-  15 1.93  16 1.93   9 1.96  10 1.96  13 1.98  14 1.98   1 3.55   2 3.55
                             1 3.55   2 3.55   4 3.55   3 3.55   4 3.55   3 3.55
   8  0.500  0.500  0.500-  17 1.93  18 1.93  11 1.96  12 1.96  20 1.98  19 1.98   4 3.55   3 3.55
                             3 3.55   4 3.55   2 3.55   1 3.55   1 3.55   2 3.55
   9  0.000  1.000  0.761-   7 1.96   5 2.14   2 2.90   2 2.90   4 2.90   4 2.90
  10  1.000  0.000  0.239-   7 1.96   5 2.14   1 2.90   1 2.90   3 2.90   3 2.90
  11  0.500  0.500  0.261-   8 1.96   6 2.14   3 2.90   3 2.90   1 2.90   1 2.90
  12  0.500  0.500  0.739-   8 1.96   6 2.14   4 2.90   4 2.90   2 2.90   2 2.90
  13  0.758  0.759  0.000-   7 1.98   6 2.12   4 2.90   3 2.90   1 2.90   2 2.90
  14  0.242  0.241  0.000-   7 1.98   6 2.12   3 2.90   4 2.90   2 2.90   1 2.90
  15  0.236  0.764  1.000-   7 1.93   6 2.16   4 2.90   3 2.90   2 2.90   1 2.90
  16  0.764  0.236  0.000-   7 1.93   6 2.16   3 2.90   4 2.90   1 2.90   2 2.90
  17  0.264  0.264  0.500-   8 1.93   5 2.16   1 2.90   2 2.90   3 2.90   4 2.90
  18  0.736  0.736  0.500-   8 1.93   5 2.16   2 2.90   1 2.90   4 2.90   3 2.90
  19  0.742  0.259  0.500-   8 1.98   5 2.12   2 2.90   1 2.90   3 2.90   4 2.90
  20  0.258  0.741  0.500-   8 1.98   5 2.12   1 2.90   2 2.90   4 2.90   3 2.90
 

IMPORTANT INFORMATION: All symmetrisations will be switched off!
NOSYMM: (Re-)initialisation of all symmetry stuff for point group C_1.

 
 
 KPOINTS: K-Points                                

Automatic generation of k-mesh.
Space group operators:
 irot       det(A)        alpha          n_x          n_y          n_z        tau_x        tau_y        tau_z
    1     1.000000     0.000000     1.000000     0.000000     0.000000     0.000000     0.000000     0.000000
 
 Subroutine IBZKPT returns following result:
 ===========================================
 
 Found    216 irreducible k-points:
 
 Following reciprocal coordinates:
            Coordinates               Weight
  0.000000  0.000000  0.000000      1.000000
  0.166667  0.000000  0.000000      1.000000
  0.333333  0.000000  0.000000      1.000000
  0.500000  0.000000  0.000000      1.000000
 -0.333333  0.000000  0.000000      1.000000
 -0.166667  0.000000  0.000000      1.000000
  0.000000  0.166667  0.000000      1.000000
  0.166667  0.166667  0.000000      1.000000
  0.333333  0.166667  0.000000      1.000000
  0.500000  0.166667  0.000000      1.000000
 -0.333333  0.166667  0.000000      1.000000
 -0.166667  0.166667  0.000000      1.000000
  0.000000  0.333333  0.000000      1.000000
  0.166667  0.333333  0.000000      1.000000
  0.333333  0.333333  0.000000      1.000000
  0.500000  0.333333  0.000000      1.000000
 -0.333333  0.333333  0.000000      1.000000
 -0.166667  0.333333  0.000000      1.000000
  0.000000  0.500000  0.000000      1.000000
  0.166667  0.500000  0.000000      1.000000
  0.333333  0.500000  0.000000      1.000000
  0.500000  0.500000  0.000000      1.000000
 -0.333333  0.500000  0.000000      1.000000
 -0.166667  0.500000  0.000000      1.000000
  0.000000 -0.333333  0.000000      1.000000
  0.166667 -0.333333  0.000000      1.000000
  0.333333 -0.333333  0.000000      1.000000
  0.500000 -0.333333  0.000000      1.000000
 -0.333333 -0.333333  0.000000      1.000000
 -0.166667 -0.333333  0.000000      1.000000
  0.000000 -0.166667  0.000000      1.000000
  0.166667 -0.166667  0.000000      1.000000
  0.333333 -0.166667  0.000000      1.000000
  0.500000 -0.166667  0.000000      1.000000
 -0.333333 -0.166667  0.000000      1.000000
 -0.166667 -0.166667  0.000000      1.000000
  0.000000  0.000000  0.166667      1.000000
  0.166667  0.000000  0.166667      1.000000
  0.333333  0.000000  0.166667      1.000000
  0.500000  0.000000  0.166667      1.000000
 -0.333333  0.000000  0.166667      1.000000
 -0.166667  0.000000  0.166667      1.000000
  0.000000  0.166667  0.166667      1.000000
  0.166667  0.166667  0.166667      1.000000
  0.333333  0.166667  0.166667      1.000000
  0.500000  0.166667  0.166667      1.000000
 -0.333333  0.166667  0.166667      1.000000
 -0.166667  0.166667  0.166667      1.000000
  0.000000  0.333333  0.166667      1.000000
  0.166667  0.333333  0.166667      1.000000
  0.333333  0.333333  0.166667      1.000000
  0.500000  0.333333  0.166667      1.000000
 -0.333333  0.333333  0.166667      1.000000
 -0.166667  0.333333  0.166667      1.000000
  0.000000  0.500000  0.166667      1.000000
  0.166667  0.500000  0.166667      1.000000
  0.333333  0.500000  0.166667      1.000000
  0.500000  0.500000  0.166667      1.000000
 -0.333333  0.500000  0.166667      1.000000
 -0.166667  0.500000  0.166667      1.000000
  0.000000 -0.333333  0.166667      1.000000
  0.166667 -0.333333  0.166667      1.000000
  0.333333 -0.333333  0.166667      1.000000
  0.500000 -0.333333  0.166667      1.000000
 -0.333333 -0.333333  0.166667      1.000000
 -0.166667 -0.333333  0.166667      1.000000
  0.000000 -0.166667  0.166667      1.000000
  0.166667 -0.166667  0.166667      1.000000
  0.333333 -0.166667  0.166667      1.000000
  0.500000 -0.166667  0.166667      1.000000
 -0.333333 -0.166667  0.166667      1.000000
 -0.166667 -0.166667  0.166667      1.000000
  0.000000  0.000000  0.333333      1.000000
  0.166667  0.000000  0.333333      1.000000
  0.333333  0.000000  0.333333      1.000000
  0.500000  0.000000  0.333333      1.000000
 -0.333333  0.000000  0.333333      1.000000
 -0.166667  0.000000  0.333333      1.000000
  0.000000  0.166667  0.333333      1.000000
  0.166667  0.166667  0.333333      1.000000
  0.333333  0.166667  0.333333      1.000000
  0.500000  0.166667  0.333333      1.000000
 -0.333333  0.166667  0.333333      1.000000
 -0.166667  0.166667  0.333333      1.000000
  0.000000  0.333333  0.333333      1.000000
  0.166667  0.333333  0.333333      1.000000
  0.333333  0.333333  0.333333      1.000000
  0.500000  0.333333  0.333333      1.000000
 -0.333333  0.333333  0.333333      1.000000
 -0.166667  0.333333  0.333333      1.000000
  0.000000  0.500000  0.333333      1.000000
  0.166667  0.500000  0.333333      1.000000
  0.333333  0.500000  0.333333      1.000000
  0.500000  0.500000  0.333333      1.000000
 -0.333333  0.500000  0.333333      1.000000
 -0.166667  0.500000  0.333333      1.000000
  0.000000 -0.333333  0.333333      1.000000
  0.166667 -0.333333  0.333333      1.000000
  0.333333 -0.333333  0.333333      1.000000
  0.500000 -0.333333  0.333333      1.000000
 -0.333333 -0.333333  0.333333      1.000000
 -0.166667 -0.333333  0.333333      1.000000
  0.000000 -0.166667  0.333333      1.000000
  0.166667 -0.166667  0.333333      1.000000
  0.333333 -0.166667  0.333333      1.000000
  0.500000 -0.166667  0.333333      1.000000
 -0.333333 -0.166667  0.333333      1.000000
 -0.166667 -0.166667  0.333333      1.000000
  0.000000  0.000000  0.500000      1.000000
  0.166667  0.000000  0.500000      1.000000
  0.333333  0.000000  0.500000      1.000000
  0.500000  0.000000  0.500000      1.000000
 -0.333333  0.000000  0.500000      1.000000
 -0.166667  0.000000  0.500000      1.000000
  0.000000  0.166667  0.500000      1.000000
  0.166667  0.166667  0.500000      1.000000
  0.333333  0.166667  0.500000      1.000000
  0.500000  0.166667  0.500000      1.000000
 -0.333333  0.166667  0.500000      1.000000
 -0.166667  0.166667  0.500000      1.000000
  0.000000  0.333333  0.500000      1.000000
  0.166667  0.333333  0.500000      1.000000
  0.333333  0.333333  0.500000      1.000000
  0.500000  0.333333  0.500000      1.000000
 -0.333333  0.333333  0.500000      1.000000
 -0.166667  0.333333  0.500000      1.000000
  0.000000  0.500000  0.500000      1.000000
  0.166667  0.500000  0.500000      1.000000
  0.333333  0.500000  0.500000      1.000000
  0.500000  0.500000  0.500000      1.000000
 -0.333333  0.500000  0.500000      1.000000
 -0.166667  0.500000  0.500000      1.000000
  0.000000 -0.333333  0.500000      1.000000
  0.166667 -0.333333  0.500000      1.000000
  0.333333 -0.333333  0.500000      1.000000
  0.500000 -0.333333  0.500000      1.000000
 -0.333333 -0.333333  0.500000      1.000000
 -0.166667 -0.333333  0.500000      1.000000
  0.000000 -0.166667  0.500000      1.000000
  0.166667 -0.166667  0.500000      1.000000
  0.333333 -0.166667  0.500000      1.000000
  0.500000 -0.166667  0.500000      1.000000
 -0.333333 -0.166667  0.500000      1.000000
 -0.166667 -0.166667  0.500000      1.000000
  0.000000  0.000000 -0.333333      1.000000
  0.166667  0.000000 -0.333333      1.000000
  0.333333  0.000000 -0.333333      1.000000
  0.500000  0.000000 -0.333333      1.000000
 -0.333333  0.000000 -0.333333      1.000000
 -0.166667  0.000000 -0.333333      1.000000
  0.000000  0.166667 -0.333333      1.000000
  0.166667  0.166667 -0.333333      1.000000
  0.333333  0.166667 -0.333333      1.000000
  0.500000  0.166667 -0.333333      1.000000
 -0.333333  0.166667 -0.333333      1.000000
 -0.166667  0.166667 -0.333333      1.000000
  0.000000  0.333333 -0.333333      1.000000
  0.166667  0.333333 -0.333333      1.000000
  0.333333  0.333333 -0.333333      1.000000
  0.500000  0.333333 -0.333333      1.000000
 -0.333333  0.333333 -0.333333      1.000000
 -0.166667  0.333333 -0.333333      1.000000
  0.000000  0.500000 -0.333333      1.000000
  0.166667  0.500000 -0.333333      1.000000
  0.333333  0.500000 -0.333333      1.000000
  0.500000  0.500000 -0.333333      1.000000
 -0.333333  0.500000 -0.333333      1.000000
 -0.166667  0.500000 -0.333333      1.000000
  0.000000 -0.333333 -0.333333      1.000000
  0.166667 -0.333333 -0.333333      1.000000
  0.333333 -0.333333 -0.333333      1.000000
  0.500000 -0.333333 -0.333333      1.000000
 -0.333333 -0.333333 -0.333333      1.000000
 -0.166667 -0.333333 -0.333333      1.000000
  0.000000 -0.166667 -0.333333      1.000000
  0.166667 -0.166667 -0.333333      1.000000
  0.333333 -0.166667 -0.333333      1.000000
  0.500000 -0.166667 -0.333333      1.000000
 -0.333333 -0.166667 -0.333333      1.000000
 -0.166667 -0.166667 -0.333333      1.000000
  0.000000  0.000000 -0.166667      1.000000
  0.166667  0.000000 -0.166667      1.000000
  0.333333  0.000000 -0.166667      1.000000
  0.500000  0.000000 -0.166667      1.000000
 -0.333333  0.000000 -0.166667      1.000000
 -0.166667  0.000000 -0.166667      1.000000
  0.000000  0.166667 -0.166667      1.000000
  0.166667  0.166667 -0.166667      1.000000
  0.333333  0.166667 -0.166667      1.000000
  0.500000  0.166667 -0.166667      1.000000
 -0.333333  0.166667 -0.166667      1.000000
 -0.166667  0.166667 -0.166667      1.000000
  0.000000  0.333333 -0.166667      1.000000
  0.166667  0.333333 -0.166667      1.000000
  0.333333  0.333333 -0.166667      1.000000
  0.500000  0.333333 -0.166667      1.000000
 -0.333333  0.333333 -0.166667      1.000000
 -0.166667  0.333333 -0.166667      1.000000
  0.000000  0.500000 -0.166667      1.000000
  0.166667  0.500000 -0.166667      1.000000
  0.333333  0.500000 -0.166667      1.000000
  0.500000  0.500000 -0.166667      1.000000
 -0.333333  0.500000 -0.166667      1.000000
 -0.166667  0.500000 -0.166667      1.000000
  0.000000 -0.333333 -0.166667      1.000000
  0.166667 -0.333333 -0.166667      1.000000
  0.333333 -0.333333 -0.166667      1.000000
  0.500000 -0.333333 -0.166667      1.000000
 -0.333333 -0.333333 -0.166667      1.000000
 -0.166667 -0.333333 -0.166667      1.000000
  0.000000 -0.166667 -0.166667      1.000000
  0.166667 -0.166667 -0.166667      1.000000
  0.333333 -0.166667 -0.166667      1.000000
  0.500000 -0.166667 -0.166667      1.000000
 -0.333333 -0.166667 -0.166667      1.000000
 -0.166667 -0.166667 -0.166667      1.000000
 
 Following cartesian coordinates:
            Coordinates               Weight
  0.000000  0.000000  0.000000      1.000000
  0.028776 -0.000000  0.000000      1.000000
  0.057552 -0.000000  0.000000      1.000000
  0.086327 -0.000000  0.000000      1.000000
 -0.057552  0.000000 -0.000000      1.000000
 -0.028776  0.000000 -0.000000      1.000000
  0.000000  0.028791  0.000000      1.000000
  0.028776  0.028791  0.000000      1.000000
  0.057552  0.028791  0.000000      1.000000
  0.086327  0.028791  0.000000      1.000000
 -0.057552  0.028791 -0.000000      1.000000
 -0.028776  0.028791 -0.000000      1.000000
  0.000000  0.057583  0.000000      1.000000
  0.028776  0.057583  0.000000      1.000000
  0.057552  0.057583  0.000000      1.000000
  0.086327  0.057583  0.000000      1.000000
 -0.057552  0.057583 -0.000000      1.000000
 -0.028776  0.057583 -0.000000      1.000000
  0.000000  0.086374  0.000000      1.000000
  0.028776  0.086374  0.000000      1.000000
  0.057552  0.086374  0.000000      1.000000
  0.086327  0.086374  0.000000      1.000000
 -0.057552  0.086374 -0.000000      1.000000
 -0.028776  0.086374 -0.000000      1.000000
 -0.000000 -0.057583 -0.000000      1.000000
  0.028776 -0.057583  0.000000      1.000000
  0.057552 -0.057583  0.000000      1.000000
  0.086327 -0.057583  0.000000      1.000000
 -0.057552 -0.057583 -0.000000      1.000000
 -0.028776 -0.057583 -0.000000      1.000000
 -0.000000 -0.028791 -0.000000      1.000000
  0.028776 -0.028791  0.000000      1.000000
  0.057552 -0.028791  0.000000      1.000000
  0.086327 -0.028791  0.000000      1.000000
 -0.057552 -0.028791 -0.000000      1.000000
 -0.028776 -0.028791 -0.000000      1.000000
  0.000000  0.000000  0.020331      1.000000
  0.028776  0.000000  0.020331      1.000000
  0.057552  0.000000  0.020331      1.000000
  0.086327  0.000000  0.020331      1.000000
 -0.057552  0.000000  0.020331      1.000000
 -0.028776  0.000000  0.020331      1.000000
  0.000000  0.028791  0.020331      1.000000
  0.028776  0.028791  0.020331      1.000000
  0.057552  0.028791  0.020331      1.000000
  0.086327  0.028791  0.020331      1.000000
 -0.057552  0.028791  0.020331      1.000000
 -0.028776  0.028791  0.020331      1.000000
  0.000000  0.057583  0.020331      1.000000
  0.028776  0.057583  0.020331      1.000000
  0.057552  0.057583  0.020331      1.000000
  0.086327  0.057583  0.020331      1.000000
 -0.057552  0.057583  0.020331      1.000000
 -0.028776  0.057583  0.020331      1.000000
  0.000000  0.086374  0.020331      1.000000
  0.028776  0.086374  0.020331      1.000000
  0.057552  0.086374  0.020331      1.000000
  0.086327  0.086374  0.020331      1.000000
 -0.057552  0.086374  0.020331      1.000000
 -0.028776  0.086374  0.020331      1.000000
  0.000000 -0.057583  0.020331      1.000000
  0.028776 -0.057583  0.020331      1.000000
  0.057552 -0.057583  0.020331      1.000000
  0.086327 -0.057583  0.020331      1.000000
 -0.057552 -0.057583  0.020331      1.000000
 -0.028776 -0.057583  0.020331      1.000000
  0.000000 -0.028791  0.020331      1.000000
  0.028776 -0.028791  0.020331      1.000000
  0.057552 -0.028791  0.020331      1.000000
  0.086327 -0.028791  0.020331      1.000000
 -0.057552 -0.028791  0.020331      1.000000
 -0.028776 -0.028791  0.020331      1.000000
  0.000000  0.000000  0.040663      1.000000
  0.028776  0.000000  0.040663      1.000000
  0.057552  0.000000  0.040663      1.000000
  0.086327  0.000000  0.040663      1.000000
 -0.057552  0.000000  0.040663      1.000000
 -0.028776  0.000000  0.040663      1.000000
  0.000000  0.028791  0.040663      1.000000
  0.028776  0.028791  0.040663      1.000000
  0.057552  0.028791  0.040663      1.000000
  0.086327  0.028791  0.040663      1.000000
 -0.057552  0.028791  0.040663      1.000000
 -0.028776  0.028791  0.040663      1.000000
  0.000000  0.057583  0.040663      1.000000
  0.028776  0.057583  0.040663      1.000000
  0.057552  0.057583  0.040663      1.000000
  0.086327  0.057583  0.040663      1.000000
 -0.057552  0.057583  0.040663      1.000000
 -0.028776  0.057583  0.040663      1.000000
  0.000000  0.086374  0.040663      1.000000
  0.028776  0.086374  0.040663      1.000000
  0.057552  0.086374  0.040663      1.000000
  0.086327  0.086374  0.040663      1.000000
 -0.057552  0.086374  0.040663      1.000000
 -0.028776  0.086374  0.040663      1.000000
  0.000000 -0.057583  0.040663      1.000000
  0.028776 -0.057583  0.040663      1.000000
  0.057552 -0.057583  0.040663      1.000000
  0.086327 -0.057583  0.040663      1.000000
 -0.057552 -0.057583  0.040663      1.000000
 -0.028776 -0.057583  0.040663      1.000000
  0.000000 -0.028791  0.040663      1.000000
  0.028776 -0.028791  0.040663      1.000000
  0.057552 -0.028791  0.040663      1.000000
  0.086327 -0.028791  0.040663      1.000000
 -0.057552 -0.028791  0.040663      1.000000
 -0.028776 -0.028791  0.040663      1.000000
  0.000000  0.000000  0.060994      1.000000
  0.028776  0.000000  0.060994      1.000000
  0.057552  0.000000  0.060994      1.000000
  0.086327  0.000000  0.060994      1.000000
 -0.057552  0.000000  0.060994      1.000000
 -0.028776  0.000000  0.060994      1.000000
  0.000000  0.028791  0.060994      1.000000
  0.028776  0.028791  0.060994      1.000000
  0.057552  0.028791  0.060994      1.000000
  0.086327  0.028791  0.060994      1.000000
 -0.057552  0.028791  0.060994      1.000000
 -0.028776  0.028791  0.060994      1.000000
  0.000000  0.057583  0.060994      1.000000
  0.028776  0.057583  0.060994      1.000000
  0.057552  0.057583  0.060994      1.000000
  0.086327  0.057583  0.060994      1.000000
 -0.057552  0.057583  0.060994      1.000000
 -0.028776  0.057583  0.060994      1.000000
  0.000000  0.086374  0.060994      1.000000
  0.028776  0.086374  0.060994      1.000000
  0.057552  0.086374  0.060994      1.000000
  0.086327  0.086374  0.060994      1.000000
 -0.057552  0.086374  0.060994      1.000000
 -0.028776  0.086374  0.060994      1.000000
  0.000000 -0.057583  0.060994      1.000000
  0.028776 -0.057583  0.060994      1.000000
  0.057552 -0.057583  0.060994      1.000000
  0.086327 -0.057583  0.060994      1.000000
 -0.057552 -0.057583  0.060994      1.000000
 -0.028776 -0.057583  0.060994      1.000000
  0.000000 -0.028791  0.060994      1.000000
  0.028776 -0.028791  0.060994      1.000000
  0.057552 -0.028791  0.060994      1.000000
  0.086327 -0.028791  0.060994      1.000000
 -0.057552 -0.028791  0.060994      1.000000
 -0.028776 -0.028791  0.060994      1.000000
 -0.000000 -0.000000 -0.040663      1.000000
  0.028776 -0.000000 -0.040663      1.000000
  0.057552 -0.000000 -0.040663      1.000000
  0.086327 -0.000000 -0.040663      1.000000
 -0.057552 -0.000000 -0.040663      1.000000
 -0.028776 -0.000000 -0.040663      1.000000
 -0.000000  0.028791 -0.040663      1.000000
  0.028776  0.028791 -0.040663      1.000000
  0.057552  0.028791 -0.040663      1.000000
  0.086327  0.028791 -0.040663      1.000000
 -0.057552  0.028791 -0.040663      1.000000
 -0.028776  0.028791 -0.040663      1.000000
 -0.000000  0.057583 -0.040663      1.000000
  0.028776  0.057583 -0.040663      1.000000
  0.057552  0.057583 -0.040663      1.000000
  0.086327  0.057583 -0.040663      1.000000
 -0.057552  0.057583 -0.040663      1.000000
 -0.028776  0.057583 -0.040663      1.000000
 -0.000000  0.086374 -0.040663      1.000000
  0.028776  0.086374 -0.040663      1.000000
  0.057552  0.086374 -0.040663      1.000000
  0.086327  0.086374 -0.040663      1.000000
 -0.057552  0.086374 -0.040663      1.000000
 -0.028776  0.086374 -0.040663      1.000000
 -0.000000 -0.057583 -0.040663      1.000000
  0.028776 -0.057583 -0.040663      1.000000
  0.057552 -0.057583 -0.040663      1.000000
  0.086327 -0.057583 -0.040663      1.000000
 -0.057552 -0.057583 -0.040663      1.000000
 -0.028776 -0.057583 -0.040663      1.000000
 -0.000000 -0.028791 -0.040663      1.000000
  0.028776 -0.028791 -0.040663      1.000000
  0.057552 -0.028791 -0.040663      1.000000
  0.086327 -0.028791 -0.040663      1.000000
 -0.057552 -0.028791 -0.040663      1.000000
 -0.028776 -0.028791 -0.040663      1.000000
 -0.000000 -0.000000 -0.020331      1.000000
  0.028776 -0.000000 -0.020331      1.000000
  0.057552 -0.000000 -0.020331      1.000000
  0.086327 -0.000000 -0.020331      1.000000
 -0.057552 -0.000000 -0.020331      1.000000
 -0.028776 -0.000000 -0.020331      1.000000
 -0.000000  0.028791 -0.020331      1.000000
  0.028776  0.028791 -0.020331      1.000000
  0.057552  0.028791 -0.020331      1.000000
  0.086327  0.028791 -0.020331      1.000000
 -0.057552  0.028791 -0.020331      1.000000
 -0.028776  0.028791 -0.020331      1.000000
 -0.000000  0.057583 -0.020331      1.000000
  0.028776  0.057583 -0.020331      1.000000
  0.057552  0.057583 -0.020331      1.000000
  0.086327  0.057583 -0.020331      1.000000
 -0.057552  0.057583 -0.020331      1.000000
 -0.028776  0.057583 -0.020331      1.000000
 -0.000000  0.086374 -0.020331      1.000000
  0.028776  0.086374 -0.020331      1.000000
  0.057552  0.086374 -0.020331      1.000000
  0.086327  0.086374 -0.020331      1.000000
 -0.057552  0.086374 -0.020331      1.000000
 -0.028776  0.086374 -0.020331      1.000000
 -0.000000 -0.057583 -0.020331      1.000000
  0.028776 -0.057583 -0.020331      1.000000
  0.057552 -0.057583 -0.020331      1.000000
  0.086327 -0.057583 -0.020331      1.000000
 -0.057552 -0.057583 -0.020331      1.000000
 -0.028776 -0.057583 -0.020331      1.000000
 -0.000000 -0.028791 -0.020331      1.000000
  0.028776 -0.028791 -0.020331      1.000000
  0.057552 -0.028791 -0.020331      1.000000
  0.086327 -0.028791 -0.020331      1.000000
 -0.057552 -0.028791 -0.020331      1.000000
 -0.028776 -0.028791 -0.020331      1.000000
 
 TETIRR: Found   1296 inequivalent tetrahedra from     1296


--------------------------------------------------------------------------------------------------------




 Dimension of arrays:
   k-points           NKPTS =    216   k-points in BZ     NKDIM =    216   number of bands    NBANDS=    192
   number of dos      NEDOS =   1001   number of ions     NIONS =     20
   non local maximal  LDIM  =      6   non local SUM 2l+1 LMDIM =     18
   total plane-waves  NPLWV = 161280
   max r-space proj   IRMAX =      1   max aug-charges    IRDMAX=  36927
   dimension x,y,z NGX =    48 NGY =   48 NGZ =   70
   dimension x,y,z NGXF=    96 NGYF=   96 NGZF=  140
   support grid    NGXF=    96 NGYF=   96 NGZF=  140
   ions per type =               4   2   2  12
 NGX,Y,Z   is equivalent  to a cutoff of  13.78, 13.78, 14.20 a.u.
 NGXF,Y,Z  is equivalent  to a cutoff of  27.56, 27.57, 28.39 a.u.


 I would recommend the setting:
   dimension x,y,z NGX =    46 NGY =   46 NGZ =   65
 SYSTEM =  unknown system                          
 POSCAR =  139_1                                   

 Startparameter for this run:
   NWRITE =      2    write-flag & timer
   PREC   = accura    normal or accurate (medium, high low for compatibility)
   ISTART =      0    job   : 0-new  1-cont  2-samecut
   ICHARG =      2    charge: 1-file 2-atom 10-const
   ISPIN  =      1    spin polarized calculation?
   LNONCOLLINEAR =      T non collinear calculations
   LSORBIT =      T    spin-orbit coupling
   INIWAV =      1    electr: 0-lowe 1-rand  2-diag
   LASPH  =      T    aspherical Exc in radial PAW
   METAGGA=      F    non-selfconsistent MetaGGA calc.

 Electronic Relaxation 1
   ENCUT  =  600.0 eV  44.10 Ry    6.64 a.u.  11.57 11.56 16.37*2*pi/ulx,y,z
   ENINI  =  600.0     initial cutoff
   ENAUG  =  758.8 eV  augmentation charge cutoff
   NELM   =    200;   NELMIN=  4; NELMDL= -5     # of ELM steps 
   EDIFF  = 0.1E-05   stopping-criterion for ELM
   LREAL  =      F    real-space projection
   NLSPLINE    = F    spline interpolate recip. space projectors
   LCOMPAT=      F    compatible to vasp.4.4
   GGA_COMPAT  = F    GGA compatible to vasp.4.4-vasp.4.6
   LMAXPAW     = -100 max onsite density
   LMAXMIX     =    4 max onsite mixed and CHGCAR
   VOSKOWN=      0    Vosko Wilk Nusair interpolation
   ROPT   =    0.00000   0.00000   0.00000   0.00000
 Ionic relaxation
   EDIFFG = 0.1E-04   stopping-criterion for IOM
   NSW    =      0    number of steps for IOM
   NBLOCK =      1;   KBLOCK =      1    inner block; outer block 
   IBRION =     -1    ionic relax: 0-MD 1-quasi-New 2-CG
   NFREE  =      0    steps in history (QN), initial steepest desc. (CG)
   ISIF   =      2    stress and relaxation
   IWAVPR =     10    prediction:  0-non 1-charg 2-wave 3-comb
   ISYM   =     -1    0-nonsym 1-usesym 2-fastsym
   LCORR  =      T    Harris-Foulkes like correction to forces

   POTIM  = 0.5000    time-step for ionic-motion
   TEIN   =    0.0    initial temperature
   TEBEG  =    0.0;   TEEND  =   0.0 temperature during run
   SMASS  =  -3.00    Nose mass-parameter (am)
   estimated Nose-frequenzy (Omega)   =  0.10E-29 period in steps =****** mass=  -0.767E-27a.u.
   SCALEE = 1.0000    scale energy and forces
   NPACO  =    256;   APACO  = 16.0  distance and # of slots for P.C.
   PSTRESS=    0.0 pullay stress

  Mass of Ions in am
   POMASS = 137.33 24.30186.21 16.00
  Ionic Valenz
   ZVAL   =  10.00  8.00 13.00  6.00
  Atomic Wigner-Seitz radii
   RWIGS  =   1.98  1.06  1.43  0.82
  virtual crystal weights 
   VCA    =   1.00  1.00  1.00  1.00
   NELECT =     154.0000    total number of electrons
   NUPDOWN=      -1.0000    fix difference up-down

 DOS related values:
   EMIN   =  10.00;   EMAX   =-10.00  energy-range for DOS
   EFERMI =   0.00
   ISMEAR =    -5;   SIGMA  =   0.20  broadening in eV -4-tet -1-fermi 0-gaus

 Electronic relaxation 2 (details)
   IALGO  =     38    algorithm
   LDIAG  =      T    sub-space diagonalisation (order eigenvalues)
   LSUBROT=      F    optimize rotation matrix (better conditioning)
   TURBO    =      0    0=normal 1=particle mesh
   IRESTART =      0    0=no restart 2=restart with 2 vectors
   NREBOOT  =      0    no. of reboots
   NMIN     =      0    reboot dimension
   EREF     =   0.00    reference energy to select bands
   IMIX   =      4    mixing-type and parameters
     AMIX     =   0.40;   BMIX     =  1.00
     AMIX_MAG =   1.60;   BMIX_MAG =  1.00
     AMIN     =   0.10
     WC   =   100.;   INIMIX=   1;  MIXPRE=   1;  MAXMIX= -45

 Intra band minimization:
   WEIMIN = 0.0000     energy-eigenvalue tresh-hold
   EBREAK =  0.13E-08  absolut break condition
   DEPER  =   0.30     relativ break condition  

   TIME   =   0.40     timestep for ELM

  volume/ion in A,a.u.               =      13.74        92.74
  Fermi-wavevector in a.u.,A,eV,Ry     =   1.349640  2.550450 24.783398  1.821528
  Thomas-Fermi vector in A             =   2.477210
 
 Write flags
   LWAVE  =      T    write WAVECAR
   LCHARG =      T    write CHGCAR
   LVTOT  =      F    write LOCPOT, total local potential
   LVHAR  =      F    write LOCPOT, Hartree potential only
   LELF   =      F    write electronic localiz. function (ELF)
   LORBIT =     11    0 simple, 1 ext, 2 COOP (PROOUT)


 Dipole corrections
   LMONO  =      F    monopole corrections only (constant potential shift)
   LDIPOL =      F    correct potential (dipole corrections)
   IDIPOL =      0    1-x, 2-y, 3-z, 4-all directions 
   EPSILON=  1.0000000 bulk dielectric constant

 LDA+U is selected, type is set to LDAUTYPE =  2
   angular momentum for each species LDAUL =    -1   -1    2   -1
   U (eV)           for each species LDAUU =   0.0  0.0  2.2  0.0
   J (eV)           for each species LDAUJ =   0.0  0.0  0.4  0.0
 Exchange correlation treatment:
   GGA     =    --    GGA type
   LEXCH   =     8    internal setting for exchange type
   VOSKOWN=      0    Vosko Wilk Nusair interpolation
   LHFCALC =     F    Hartree Fock is set to
   LHFONE  =     F    Hartree Fock one center treatment
   AEXX    =    0.0000 exact exchange contribution

 Linear response parameters
   LEPSILON=     F    determine dielectric tensor
   LRPA    =     F    only Hartree local field effects (RPA)
   LNABLA  =     F    use nabla operator in PAW spheres
   LVEL    =     F    velocity operator in full k-point grid
   LINTERFAST=   F  fast interpolation
   KINTER  =     0    interpolate to denser k-point grid
   CSHIFT  =0.1000    complex shift for real part using Kramers Kronig
   OMEGAMAX=  -1.0    maximum frequency
   DEG_THRESHOLD= 0.2000000E-02 threshold for treating states as degnerate
   RTIME   =    0.100 relaxation time in fs

 Orbital magnetization related:
   ORBITALMAG=     F  switch on orbital magnetization
   LCHIMAG   =     F  perturbation theory with respect to B field
   DQ        =  0.001000  dq finite difference perturbation B field



--------------------------------------------------------------------------------------------------------


 Static calculation
 charge density and potential will be updated during run
 non collinear spin polarized calculation
 Variant of blocked Davidson
 Davidson routine will perform the subspace rotation
 perform sub-space diagonalisation
    after iterative eigenvector-optimisation
 modified Broyden-mixing scheme, WC =      100.0
 initial mixing is a Kerker type mixing with AMIX =  0.4000 and BMIX =      1.0000
 Hartree-type preconditioning will be used
 using additional bands          115
 reciprocal scheme for non local part
 use partial core corrections
 calculate Harris-corrections to forces 
   (improved forces if not selfconsistent)
 use gradient corrections 
 use of overlap-Matrix (Vanderbilt PP)
 Fermi weights with tetrahedron method with Bloechl corrections


--------------------------------------------------------------------------------------------------------


  energy-cutoff  :      600.00
  volume of cell :      274.85
      direct lattice vectors                 reciprocal lattice vectors
     5.791907803 -0.000000084 -0.000000763     0.172654682 -0.000000003  0.000000027
     0.000000116  5.788760501 -0.000000543     0.000000003  0.172748553  0.000000008
    -0.000001288 -0.000000366  8.197549967     0.000000016  0.000000011  0.121987668

  length of vectors
     5.791907803  5.788760501  8.197549967     0.172654682  0.172748553  0.121987668


 
 k-points in units of 2pi/SCALE and weight: K-Points                                
   0.00000000  0.00000000  0.00000000       0.005
   0.02877578 -0.00000000  0.00000000       0.005
   0.05755156 -0.00000000  0.00000001       0.005
   0.08632734 -0.00000000  0.00000001       0.005
  -0.05755156  0.00000000 -0.00000001       0.005
  -0.02877578  0.00000000 -0.00000000       0.005
   0.00000000  0.02879143  0.00000000       0.005
   0.02877578  0.02879142  0.00000001       0.005
   0.05755156  0.02879142  0.00000001       0.005
   0.08632734  0.02879142  0.00000001       0.005
  -0.05755156  0.02879143 -0.00000001       0.005
  -0.02877578  0.02879143 -0.00000000       0.005
   0.00000000  0.05758285  0.00000000       0.005
   0.02877578  0.05758285  0.00000001       0.005
   0.05755156  0.05758285  0.00000001       0.005
   0.08632734  0.05758285  0.00000002       0.005
  -0.05755156  0.05758285 -0.00000001       0.005
  -0.02877578  0.05758285 -0.00000000       0.005
   0.00000000  0.08637428  0.00000000       0.005
   0.02877578  0.08637428  0.00000001       0.005
   0.05755156  0.08637428  0.00000001       0.005
   0.08632734  0.08637427  0.00000002       0.005
  -0.05755156  0.08637428 -0.00000001       0.005
  -0.02877578  0.08637428 -0.00000000       0.005
  -0.00000000 -0.05758285 -0.00000000       0.005
   0.02877578 -0.05758285  0.00000000       0.005
   0.05755156 -0.05758285  0.00000001       0.005
   0.08632734 -0.05758285  0.00000001       0.005
  -0.05755156 -0.05758285 -0.00000001       0.005
  -0.02877578 -0.05758285 -0.00000001       0.005
  -0.00000000 -0.02879143 -0.00000000       0.005
   0.02877578 -0.02879143  0.00000000       0.005
   0.05755156 -0.02879143  0.00000001       0.005
   0.08632734 -0.02879143  0.00000001       0.005
  -0.05755156 -0.02879142 -0.00000001       0.005
  -0.02877578 -0.02879142 -0.00000001       0.005
   0.00000000  0.00000000  0.02033128       0.005
   0.02877578  0.00000000  0.02033128       0.005
   0.05755156  0.00000000  0.02033129       0.005
   0.08632734  0.00000000  0.02033129       0.005
  -0.05755156  0.00000000  0.02033127       0.005
  -0.02877578  0.00000000  0.02033127       0.005
   0.00000000  0.02879143  0.02033128       0.005
   0.02877578  0.02879143  0.02033128       0.005
   0.05755156  0.02879143  0.02033129       0.005
   0.08632734  0.02879143  0.02033129       0.005
  -0.05755156  0.02879143  0.02033127       0.005
  -0.02877578  0.02879143  0.02033127       0.005
   0.00000000  0.05758285  0.02033128       0.005
   0.02877578  0.05758285  0.02033129       0.005
   0.05755156  0.05758285  0.02033129       0.005
   0.08632734  0.05758285  0.02033129       0.005
  -0.05755156  0.05758285  0.02033127       0.005
  -0.02877578  0.05758285  0.02033128       0.005
   0.00000000  0.08637428  0.02033128       0.005
   0.02877578  0.08637428  0.02033129       0.005
   0.05755156  0.08637428  0.02033129       0.005
   0.08632734  0.08637428  0.02033130       0.005
  -0.05755156  0.08637428  0.02033127       0.005
  -0.02877578  0.08637428  0.02033128       0.005
   0.00000000 -0.05758285  0.02033128       0.005
   0.02877578 -0.05758285  0.02033128       0.005
   0.05755156 -0.05758285  0.02033128       0.005
   0.08632734 -0.05758285  0.02033129       0.005
  -0.05755156 -0.05758285  0.02033127       0.005
  -0.02877578 -0.05758285  0.02033127       0.005
   0.00000000 -0.02879142  0.02033128       0.005
   0.02877578 -0.02879142  0.02033128       0.005
   0.05755156 -0.02879142  0.02033129       0.005
   0.08632734 -0.02879143  0.02033129       0.005
  -0.05755156 -0.02879142  0.02033127       0.005
  -0.02877578 -0.02879142  0.02033127       0.005
   0.00000001  0.00000000  0.04066256       0.005
   0.02877579  0.00000000  0.04066256       0.005
   0.05755157  0.00000000  0.04066256       0.005
   0.08632735  0.00000000  0.04066257       0.005
  -0.05755156  0.00000000  0.04066255       0.005
  -0.02877577  0.00000000  0.04066255       0.005
   0.00000001  0.02879143  0.04066256       0.005
   0.02877579  0.02879143  0.04066256       0.005
   0.05755157  0.02879143  0.04066257       0.005
   0.08632735  0.02879143  0.04066257       0.005
  -0.05755155  0.02879143  0.04066255       0.005
  -0.02877577  0.02879143  0.04066255       0.005
   0.00000001  0.05758285  0.04066256       0.005
   0.02877579  0.05758285  0.04066256       0.005
   0.05755157  0.05758285  0.04066257       0.005
   0.08632735  0.05758285  0.04066257       0.005
  -0.05755155  0.05758286  0.04066255       0.005
  -0.02877577  0.05758286  0.04066255       0.005
   0.00000001  0.08637428  0.04066256       0.005
   0.02877579  0.08637428  0.04066256       0.005
   0.05755157  0.08637428  0.04066257       0.005
   0.08632735  0.08637428  0.04066257       0.005
  -0.05755155  0.08637428  0.04066255       0.005
  -0.02877577  0.08637428  0.04066256       0.005
   0.00000000 -0.05758285  0.04066255       0.005
   0.02877578 -0.05758285  0.04066256       0.005
   0.05755157 -0.05758285  0.04066256       0.005
   0.08632735 -0.05758285  0.04066257       0.005
  -0.05755156 -0.05758285  0.04066254       0.005
  -0.02877578 -0.05758285  0.04066255       0.005
   0.00000000 -0.02879142  0.04066255       0.005
   0.02877579 -0.02879142  0.04066256       0.005
   0.05755157 -0.02879142  0.04066256       0.005
   0.08632735 -0.02879142  0.04066257       0.005
  -0.05755156 -0.02879142  0.04066255       0.005
  -0.02877578 -0.02879142  0.04066255       0.005
   0.00000001  0.00000001  0.06099383       0.005
   0.02877579  0.00000001  0.06099384       0.005
   0.05755157  0.00000000  0.06099384       0.005
   0.08632735  0.00000000  0.06099385       0.005
  -0.05755155  0.00000001  0.06099382       0.005
  -0.02877577  0.00000001  0.06099383       0.005
   0.00000001  0.02879143  0.06099384       0.005
   0.02877579  0.02879143  0.06099384       0.005
   0.05755157  0.02879143  0.06099384       0.005
   0.08632735  0.02879143  0.06099385       0.005
  -0.05755155  0.02879143  0.06099383       0.005
  -0.02877577  0.02879143  0.06099383       0.005
   0.00000001  0.05758286  0.06099384       0.005
   0.02877579  0.05758286  0.06099384       0.005
   0.05755157  0.05758286  0.06099385       0.005
   0.08632735  0.05758285  0.06099385       0.005
  -0.05755155  0.05758286  0.06099383       0.005
  -0.02877577  0.05758286  0.06099383       0.005
   0.00000001  0.08637428  0.06099384       0.005
   0.02877579  0.08637428  0.06099384       0.005
   0.05755157  0.08637428  0.06099385       0.005
   0.08632735  0.08637428  0.06099385       0.005
  -0.05755155  0.08637428  0.06099383       0.005
  -0.02877577  0.08637428  0.06099383       0.005
   0.00000001 -0.05758285  0.06099383       0.005
   0.02877579 -0.05758285  0.06099384       0.005
   0.05755157 -0.05758285  0.06099384       0.005
   0.08632735 -0.05758285  0.06099384       0.005
  -0.05755155 -0.05758284  0.06099382       0.005
  -0.02877577 -0.05758284  0.06099383       0.005
   0.00000001 -0.02879142  0.06099383       0.005
   0.02877579 -0.02879142  0.06099384       0.005
   0.05755157 -0.02879142  0.06099384       0.005
   0.08632735 -0.02879142  0.06099385       0.005
  -0.05755155 -0.02879142  0.06099382       0.005
  -0.02877577 -0.02879142  0.06099383       0.005
  -0.00000001 -0.00000000 -0.04066256       0.005
   0.02877577 -0.00000000 -0.04066255       0.005
   0.05755156 -0.00000000 -0.04066255       0.005
   0.08632734 -0.00000001 -0.04066254       0.005
  -0.05755157 -0.00000000 -0.04066256       0.005
  -0.02877579 -0.00000000 -0.04066256       0.005
  -0.00000000  0.02879142 -0.04066255       0.005
   0.02877578  0.02879142 -0.04066255       0.005
   0.05755156  0.02879142 -0.04066255       0.005
   0.08632734  0.02879142 -0.04066254       0.005
  -0.05755157  0.02879142 -0.04066256       0.005
  -0.02877579  0.02879142 -0.04066256       0.005
  -0.00000000  0.05758285 -0.04066255       0.005
   0.02877578  0.05758285 -0.04066255       0.005
   0.05755156  0.05758285 -0.04066254       0.005
   0.08632734  0.05758285 -0.04066254       0.005
  -0.05755157  0.05758285 -0.04066256       0.005
  -0.02877578  0.05758285 -0.04066256       0.005
  -0.00000000  0.08637427 -0.04066255       0.005
   0.02877578  0.08637427 -0.04066255       0.005
   0.05755156  0.08637427 -0.04066254       0.005
   0.08632734  0.08637427 -0.04066254       0.005
  -0.05755156  0.08637427 -0.04066256       0.005
  -0.02877578  0.08637427 -0.04066256       0.005
  -0.00000001 -0.05758285 -0.04066256       0.005
   0.02877577 -0.05758286 -0.04066255       0.005
   0.05755155 -0.05758286 -0.04066255       0.005
   0.08632733 -0.05758286 -0.04066254       0.005
  -0.05755157 -0.05758285 -0.04066257       0.005
  -0.02877579 -0.05758285 -0.04066256       0.005
  -0.00000001 -0.02879143 -0.04066256       0.005
   0.02877577 -0.02879143 -0.04066255       0.005
   0.05755155 -0.02879143 -0.04066255       0.005
   0.08632734 -0.02879143 -0.04066254       0.005
  -0.05755157 -0.02879143 -0.04066257       0.005
  -0.02877579 -0.02879143 -0.04066256       0.005
  -0.00000000 -0.00000000 -0.02033128       0.005
   0.02877578 -0.00000000 -0.02033127       0.005
   0.05755156 -0.00000000 -0.02033127       0.005
   0.08632734 -0.00000000 -0.02033126       0.005
  -0.05755156 -0.00000000 -0.02033129       0.005
  -0.02877578 -0.00000000 -0.02033128       0.005
  -0.00000000  0.02879142 -0.02033128       0.005
   0.02877578  0.02879142 -0.02033127       0.005
   0.05755156  0.02879142 -0.02033127       0.005
   0.08632734  0.02879142 -0.02033126       0.005
  -0.05755156  0.02879142 -0.02033129       0.005
  -0.02877578  0.02879142 -0.02033128       0.005
  -0.00000000  0.05758285 -0.02033128       0.005
   0.02877578  0.05758285 -0.02033127       0.005
   0.05755156  0.05758285 -0.02033127       0.005
   0.08632734  0.05758285 -0.02033126       0.005
  -0.05755156  0.05758285 -0.02033128       0.005
  -0.02877578  0.05758285 -0.02033128       0.005
  -0.00000000  0.08637427 -0.02033127       0.005
   0.02877578  0.08637427 -0.02033127       0.005
   0.05755156  0.08637427 -0.02033127       0.005
   0.08632734  0.08637427 -0.02033126       0.005
  -0.05755156  0.08637428 -0.02033128       0.005
  -0.02877578  0.08637428 -0.02033128       0.005
  -0.00000000 -0.05758285 -0.02033128       0.005
   0.02877578 -0.05758285 -0.02033128       0.005
   0.05755156 -0.05758285 -0.02033127       0.005
   0.08632734 -0.05758285 -0.02033127       0.005
  -0.05755156 -0.05758285 -0.02033129       0.005
  -0.02877578 -0.05758285 -0.02033129       0.005
  -0.00000000 -0.02879143 -0.02033128       0.005
   0.02877578 -0.02879143 -0.02033127       0.005
   0.05755156 -0.02879143 -0.02033127       0.005
   0.08632734 -0.02879143 -0.02033127       0.005
  -0.05755156 -0.02879143 -0.02033129       0.005
  -0.02877578 -0.02879143 -0.02033128       0.005
 
 k-points in reciprocal lattice and weights: K-Points                                
   0.00000000  0.00000000  0.00000000       0.005
   0.16666667  0.00000000  0.00000000       0.005
   0.33333333  0.00000000  0.00000000       0.005
   0.50000000  0.00000000  0.00000000       0.005
  -0.33333333  0.00000000  0.00000000       0.005
  -0.16666667  0.00000000  0.00000000       0.005
   0.00000000  0.16666667  0.00000000       0.005
   0.16666667  0.16666667  0.00000000       0.005
   0.33333333  0.16666667  0.00000000       0.005
   0.50000000  0.16666667  0.00000000       0.005
  -0.33333333  0.16666667  0.00000000       0.005
  -0.16666667  0.16666667  0.00000000       0.005
   0.00000000  0.33333333  0.00000000       0.005
   0.16666667  0.33333333  0.00000000       0.005
   0.33333333  0.33333333  0.00000000       0.005
   0.50000000  0.33333333  0.00000000       0.005
  -0.33333333  0.33333333  0.00000000       0.005
  -0.16666667  0.33333333  0.00000000       0.005
   0.00000000  0.50000000  0.00000000       0.005
   0.16666667  0.50000000  0.00000000       0.005
   0.33333333  0.50000000  0.00000000       0.005
   0.50000000  0.50000000  0.00000000       0.005
  -0.33333333  0.50000000  0.00000000       0.005
  -0.16666667  0.50000000  0.00000000       0.005
   0.00000000 -0.33333333  0.00000000       0.005
   0.16666667 -0.33333333  0.00000000       0.005
   0.33333333 -0.33333333  0.00000000       0.005
   0.50000000 -0.33333333  0.00000000       0.005
  -0.33333333 -0.33333333  0.00000000       0.005
  -0.16666667 -0.33333333  0.00000000       0.005
   0.00000000 -0.16666667  0.00000000       0.005
   0.16666667 -0.16666667  0.00000000       0.005
   0.33333333 -0.16666667  0.00000000       0.005
   0.50000000 -0.16666667  0.00000000       0.005
  -0.33333333 -0.16666667  0.00000000       0.005
  -0.16666667 -0.16666667  0.00000000       0.005
   0.00000000  0.00000000  0.16666667       0.005
   0.16666667  0.00000000  0.16666667       0.005
   0.33333333  0.00000000  0.16666667       0.005
   0.50000000  0.00000000  0.16666667       0.005
  -0.33333333  0.00000000  0.16666667       0.005
  -0.16666667  0.00000000  0.16666667       0.005
   0.00000000  0.16666667  0.16666667       0.005
   0.16666667  0.16666667  0.16666667       0.005
   0.33333333  0.16666667  0.16666667       0.005
   0.50000000  0.16666667  0.16666667       0.005
  -0.33333333  0.16666667  0.16666667       0.005
  -0.16666667  0.16666667  0.16666667       0.005
   0.00000000  0.33333333  0.16666667       0.005
   0.16666667  0.33333333  0.16666667       0.005
   0.33333333  0.33333333  0.16666667       0.005
   0.50000000  0.33333333  0.16666667       0.005
  -0.33333333  0.33333333  0.16666667       0.005
  -0.16666667  0.33333333  0.16666667       0.005
   0.00000000  0.50000000  0.16666667       0.005
   0.16666667  0.50000000  0.16666667       0.005
   0.33333333  0.50000000  0.16666667       0.005
   0.50000000  0.50000000  0.16666667       0.005
  -0.33333333  0.50000000  0.16666667       0.005
  -0.16666667  0.50000000  0.16666667       0.005
   0.00000000 -0.33333333  0.16666667       0.005
   0.16666667 -0.33333333  0.16666667       0.005
   0.33333333 -0.33333333  0.16666667       0.005
   0.50000000 -0.33333333  0.16666667       0.005
  -0.33333333 -0.33333333  0.16666667       0.005
  -0.16666667 -0.33333333  0.16666667       0.005
   0.00000000 -0.16666667  0.16666667       0.005
   0.16666667 -0.16666667  0.16666667       0.005
   0.33333333 -0.16666667  0.16666667       0.005
   0.50000000 -0.16666667  0.16666667       0.005
  -0.33333333 -0.16666667  0.16666667       0.005
  -0.16666667 -0.16666667  0.16666667       0.005
   0.00000000  0.00000000  0.33333333       0.005
   0.16666667  0.00000000  0.33333333       0.005
   0.33333333  0.00000000  0.33333333       0.005
   0.50000000  0.00000000  0.33333333       0.005
  -0.33333333  0.00000000  0.33333333       0.005
  -0.16666667  0.00000000  0.33333333       0.005
   0.00000000  0.16666667  0.33333333       0.005
   0.16666667  0.16666667  0.33333333       0.005
   0.33333333  0.16666667  0.33333333       0.005
   0.50000000  0.16666667  0.33333333       0.005
  -0.33333333  0.16666667  0.33333333       0.005
  -0.16666667  0.16666667  0.33333333       0.005
   0.00000000  0.33333333  0.33333333       0.005
   0.16666667  0.33333333  0.33333333       0.005
   0.33333333  0.33333333  0.33333333       0.005
   0.50000000  0.33333333  0.33333333       0.005
  -0.33333333  0.33333333  0.33333333       0.005
  -0.16666667  0.33333333  0.33333333       0.005
   0.00000000  0.50000000  0.33333333       0.005
   0.16666667  0.50000000  0.33333333       0.005
   0.33333333  0.50000000  0.33333333       0.005
   0.50000000  0.50000000  0.33333333       0.005
  -0.33333333  0.50000000  0.33333333       0.005
  -0.16666667  0.50000000  0.33333333       0.005
   0.00000000 -0.33333333  0.33333333       0.005
   0.16666667 -0.33333333  0.33333333       0.005
   0.33333333 -0.33333333  0.33333333       0.005
   0.50000000 -0.33333333  0.33333333       0.005
  -0.33333333 -0.33333333  0.33333333       0.005
  -0.16666667 -0.33333333  0.33333333       0.005
   0.00000000 -0.16666667  0.33333333       0.005
   0.16666667 -0.16666667  0.33333333       0.005
   0.33333333 -0.16666667  0.33333333       0.005
   0.50000000 -0.16666667  0.33333333       0.005
  -0.33333333 -0.16666667  0.33333333       0.005
  -0.16666667 -0.16666667  0.33333333       0.005
   0.00000000  0.00000000  0.50000000       0.005
   0.16666667  0.00000000  0.50000000       0.005
   0.33333333  0.00000000  0.50000000       0.005
   0.50000000  0.00000000  0.50000000       0.005
  -0.33333333  0.00000000  0.50000000       0.005
  -0.16666667  0.00000000  0.50000000       0.005
   0.00000000  0.16666667  0.50000000       0.005
   0.16666667  0.16666667  0.50000000       0.005
   0.33333333  0.16666667  0.50000000       0.005
   0.50000000  0.16666667  0.50000000       0.005
  -0.33333333  0.16666667  0.50000000       0.005
  -0.16666667  0.16666667  0.50000000       0.005
   0.00000000  0.33333333  0.50000000       0.005
   0.16666667  0.33333333  0.50000000       0.005
   0.33333333  0.33333333  0.50000000       0.005
   0.50000000  0.33333333  0.50000000       0.005
  -0.33333333  0.33333333  0.50000000       0.005
  -0.16666667  0.33333333  0.50000000       0.005
   0.00000000  0.50000000  0.50000000       0.005
   0.16666667  0.50000000  0.50000000       0.005
   0.33333333  0.50000000  0.50000000       0.005
   0.50000000  0.50000000  0.50000000       0.005
  -0.33333333  0.50000000  0.50000000       0.005
  -0.16666667  0.50000000  0.50000000       0.005
   0.00000000 -0.33333333  0.50000000       0.005
   0.16666667 -0.33333333  0.50000000       0.005
   0.33333333 -0.33333333  0.50000000       0.005
   0.50000000 -0.33333333  0.50000000       0.005
  -0.33333333 -0.33333333  0.50000000       0.005
  -0.16666667 -0.33333333  0.50000000       0.005
   0.00000000 -0.16666667  0.50000000       0.005
   0.16666667 -0.16666667  0.50000000       0.005
   0.33333333 -0.16666667  0.50000000       0.005
   0.50000000 -0.16666667  0.50000000       0.005
  -0.33333333 -0.16666667  0.50000000       0.005
  -0.16666667 -0.16666667  0.50000000       0.005
   0.00000000  0.00000000 -0.33333333       0.005
   0.16666667  0.00000000 -0.33333333       0.005
   0.33333333  0.00000000 -0.33333333       0.005
   0.50000000  0.00000000 -0.33333333       0.005
  -0.33333333  0.00000000 -0.33333333       0.005
  -0.16666667  0.00000000 -0.33333333       0.005
   0.00000000  0.16666667 -0.33333333       0.005
   0.16666667  0.16666667 -0.33333333       0.005
   0.33333333  0.16666667 -0.33333333       0.005
   0.50000000  0.16666667 -0.33333333       0.005
  -0.33333333  0.16666667 -0.33333333       0.005
  -0.16666667  0.16666667 -0.33333333       0.005
   0.00000000  0.33333333 -0.33333333       0.005
   0.16666667  0.33333333 -0.33333333       0.005
   0.33333333  0.33333333 -0.33333333       0.005
   0.50000000  0.33333333 -0.33333333       0.005
  -0.33333333  0.33333333 -0.33333333       0.005
  -0.16666667  0.33333333 -0.33333333       0.005
   0.00000000  0.50000000 -0.33333333       0.005
   0.16666667  0.50000000 -0.33333333       0.005
   0.33333333  0.50000000 -0.33333333       0.005
   0.50000000  0.50000000 -0.33333333       0.005
  -0.33333333  0.50000000 -0.33333333       0.005
  -0.16666667  0.50000000 -0.33333333       0.005
   0.00000000 -0.33333333 -0.33333333       0.005
   0.16666667 -0.33333333 -0.33333333       0.005
   0.33333333 -0.33333333 -0.33333333       0.005
   0.50000000 -0.33333333 -0.33333333       0.005
  -0.33333333 -0.33333333 -0.33333333       0.005
  -0.16666667 -0.33333333 -0.33333333       0.005
   0.00000000 -0.16666667 -0.33333333       0.005
   0.16666667 -0.16666667 -0.33333333       0.005
   0.33333333 -0.16666667 -0.33333333       0.005
   0.50000000 -0.16666667 -0.33333333       0.005
  -0.33333333 -0.16666667 -0.33333333       0.005
  -0.16666667 -0.16666667 -0.33333333       0.005
   0.00000000  0.00000000 -0.16666667       0.005
   0.16666667  0.00000000 -0.16666667       0.005
   0.33333333  0.00000000 -0.16666667       0.005
   0.50000000  0.00000000 -0.16666667       0.005
  -0.33333333  0.00000000 -0.16666667       0.005
  -0.16666667  0.00000000 -0.16666667       0.005
   0.00000000  0.16666667 -0.16666667       0.005
   0.16666667  0.16666667 -0.16666667       0.005
   0.33333333  0.16666667 -0.16666667       0.005
   0.50000000  0.16666667 -0.16666667       0.005
  -0.33333333  0.16666667 -0.16666667       0.005
  -0.16666667  0.16666667 -0.16666667       0.005
   0.00000000  0.33333333 -0.16666667       0.005
   0.16666667  0.33333333 -0.16666667       0.005
   0.33333333  0.33333333 -0.16666667       0.005
   0.50000000  0.33333333 -0.16666667       0.005
  -0.33333333  0.33333333 -0.16666667       0.005
  -0.16666667  0.33333333 -0.16666667       0.005
   0.00000000  0.50000000 -0.16666667       0.005
   0.16666667  0.50000000 -0.16666667       0.005
   0.33333333  0.50000000 -0.16666667       0.005
   0.50000000  0.50000000 -0.16666667       0.005
  -0.33333333  0.50000000 -0.16666667       0.005
  -0.16666667  0.50000000 -0.16666667       0.005
   0.00000000 -0.33333333 -0.16666667       0.005
   0.16666667 -0.33333333 -0.16666667       0.005
   0.33333333 -0.33333333 -0.16666667       0.005
   0.50000000 -0.33333333 -0.16666667       0.005
  -0.33333333 -0.33333333 -0.16666667       0.005
  -0.16666667 -0.33333333 -0.16666667       0.005
   0.00000000 -0.16666667 -0.16666667       0.005
   0.16666667 -0.16666667 -0.16666667       0.005
   0.33333333 -0.16666667 -0.16666667       0.005
   0.50000000 -0.16666667 -0.16666667       0.005
  -0.33333333 -0.16666667 -0.16666667       0.005
  -0.16666667 -0.16666667 -0.16666667       0.005
 
 position of ions in fractional coordinates (direct lattice) 
   0.00000000  0.50000006  0.25000000
   0.00000000  0.49999994  0.75000000
   0.49999994  0.00000000  0.25000000
   0.50000006  0.00000000  0.75000000
   0.00000000  0.00000000  0.50000006
   0.50000000  0.50000000  0.00000000
   0.00000000  0.00000000  0.00000000
   0.50000000  0.50000000  0.50000000
   0.00000009  0.99999978  0.76101587
   0.99999991  0.00000025  0.23898413
   0.49999987  0.50000006  0.26101580
   0.50000016  0.49999991  0.73898421
   0.75818728  0.75858507  0.00000001
   0.24181271  0.24141495  0.00000000
   0.23628573  0.76389210  0.99999985
   0.76371426  0.23610790  0.00000014
   0.26371418  0.26389206  0.49999995
   0.73628583  0.73610795  0.50000008
   0.74181288  0.25858519  0.50000000
   0.25818714  0.74141482  0.50000001
 
 position of ions in cartesian coordinates  (Angst):
  -0.00000026  2.89438051  2.04938722
  -0.00000091  2.89437963  6.14816220
   2.89595323 -0.00000013  2.04938711
   2.89595328 -0.00000032  6.14816209
  -0.00000064 -0.00000018  4.09877548
   2.89595396  2.89438021 -0.00000065
   0.00000000  0.00000000  0.00000000
   2.89595332  2.89438003  4.09877433
  -0.00000032  5.78875894  6.23846508
   5.79190700  0.00000125  1.95908360
   2.89595289  2.89438043  2.13968937
   2.89595393  2.89437940  6.05785937
   4.39135093  4.39126721 -0.00000094
   1.40055698  1.39749328 -0.00000031
   1.36854395  4.42198804  8.19754816
   4.42336264  1.36677199  0.00000047
   1.52740763  1.52760773  4.09877422
   4.26449906  4.26115235  4.09877464
   4.29651121  1.49688748  4.09877427
   1.49539553  4.29187262  4.09877445
 
 Euler angles ALPHA=     0.0000000  BETA=     0.0000000

 transformation matrix from SAXIS to cartesian coordinates
 ---------------------------------------------------------
     1.0000000 m_x     0.0000000 m_y     0.0000000 m_z
     0.0000000 m_x     1.0000000 m_y     0.0000000 m_z
     0.0000000 m_x     0.0000000 m_y     1.0000000 m_z

 transformation matrix from cartesian coordinates to SAXIS
 ---------------------------------------------------------
     1.0000000 m_x     0.0000000 m_y     0.0000000 m_z
     0.0000000 m_x     1.0000000 m_y     0.0000000 m_z
     0.0000000 m_x     0.0000000 m_y     1.0000000 m_z




--------------------------------------------------------------------------------------------------------


 k-point  1 :   0.0000 0.0000 0.0000  plane waves:   18378
 k-point  2 :   0.1667 0.0000 0.0000  plane waves:   18386
 k-point  3 :   0.3333 0.0000 0.0000  plane waves:   18298
 k-point  4 :   0.5000 0.0000 0.0000  plane waves:   18368
 k-point  5 :  -0.3333 0.0000 0.0000  plane waves:   18298
 k-point  6 :  -0.1667 0.0000 0.0000  plane waves:   18386
 k-point  7 :   0.0000 0.1667 0.0000  plane waves:   18374
 k-point  8 :   0.1667 0.1667 0.0000  plane waves:   18342
 k-point  9 :   0.3333 0.1667 0.0000  plane waves:   18360
 k-point 10 :   0.5000 0.1667 0.0000  plane waves:   18332
 k-point 11 :  -0.3333 0.1667 0.0000  plane waves:   18360
 k-point 12 :  -0.1667 0.1667 0.0000  plane waves:   18342
 k-point 13 :   0.0000 0.3333 0.0000  plane waves:   18298
 k-point 14 :   0.1667 0.3333 0.0000  plane waves:   18352
 k-point 15 :   0.3333 0.3333 0.0000  plane waves:   18392
 k-point 16 :   0.5000 0.3333 0.0000  plane waves:   18340
 k-point 17 :  -0.3333 0.3333 0.0000  plane waves:   18392
 k-point 18 :  -0.1667 0.3333 0.0000  plane waves:   18352
 k-point 19 :   0.0000 0.5000 0.0000  plane waves:   18384
 k-point 20 :   0.1667 0.5000 0.0000  plane waves:   18332
 k-point 21 :   0.3333 0.5000 0.0000  plane waves:   18348
 k-point 22 :   0.5000 0.5000 0.0000  plane waves:   18272
 k-point 23 :  -0.3333 0.5000 0.0000  plane waves:   18348
 k-point 24 :  -0.1667 0.5000 0.0000  plane waves:   18332
 k-point 25 :   0.0000-0.3333 0.0000  plane waves:   18298
 k-point 26 :   0.1667-0.3333 0.0000  plane waves:   18352
 k-point 27 :   0.3333-0.3333 0.0000  plane waves:   18392
 k-point 28 :   0.5000-0.3333 0.0000  plane waves:   18340
 k-point 29 :  -0.3333-0.3333 0.0000  plane waves:   18392
 k-point 30 :  -0.1667-0.3333 0.0000  plane waves:   18352
 k-point 31 :   0.0000-0.1667 0.0000  plane waves:   18374
 k-point 32 :   0.1667-0.1667 0.0000  plane waves:   18342
 k-point 33 :   0.3333-0.1667 0.0000  plane waves:   18360
 k-point 34 :   0.5000-0.1667 0.0000  plane waves:   18332
 k-point 35 :  -0.3333-0.1667 0.0000  plane waves:   18360
 k-point 36 :  -0.1667-0.1667 0.0000  plane waves:   18342
 k-point 37 :   0.0000 0.0000 0.1667  plane waves:   18370
 k-point 38 :   0.1667 0.0000 0.1667  plane waves:   18368
 k-point 39 :   0.3333 0.0000 0.1667  plane waves:   18368
 k-point 40 :   0.5000 0.0000 0.1667  plane waves:   18352
 k-point 41 :  -0.3333 0.0000 0.1667  plane waves:   18368
 k-point 42 :  -0.1667 0.0000 0.1667  plane waves:   18368
 k-point 43 :   0.0000 0.1667 0.1667  plane waves:   18352
 k-point 44 :   0.1667 0.1667 0.1667  plane waves:   18358
 k-point 45 :   0.3333 0.1667 0.1667  plane waves:   18370
 k-point 46 :   0.5000 0.1667 0.1667  plane waves:   18348
 k-point 47 :  -0.3333 0.1667 0.1667  plane waves:   18370
 k-point 48 :  -0.1667 0.1667 0.1667  plane waves:   18358
 k-point 49 :   0.0000 0.3333 0.1667  plane waves:   18368
 k-point 50 :   0.1667 0.3333 0.1667  plane waves:   18362
 k-point 51 :   0.3333 0.3333 0.1667  plane waves:   18340
 k-point 52 :   0.5000 0.3333 0.1667  plane waves:   18308
 k-point 53 :  -0.3333 0.3333 0.1667  plane waves:   18340
 k-point 54 :  -0.1667 0.3333 0.1667  plane waves:   18362
 k-point 55 :   0.0000 0.5000 0.1667  plane waves:   18360
 k-point 56 :   0.1667 0.5000 0.1667  plane waves:   18344
 k-point 57 :   0.3333 0.5000 0.1667  plane waves:   18308
 k-point 58 :   0.5000 0.5000 0.1667  plane waves:   18352
 k-point 59 :  -0.3333 0.5000 0.1667  plane waves:   18308
 k-point 60 :  -0.1667 0.5000 0.1667  plane waves:   18344
 k-point 61 :   0.0000-0.3333 0.1667  plane waves:   18368
 k-point 62 :   0.1667-0.3333 0.1667  plane waves:   18362
 k-point 63 :   0.3333-0.3333 0.1667  plane waves:   18340
 k-point 64 :   0.5000-0.3333 0.1667  plane waves:   18308
 k-point 65 :  -0.3333-0.3333 0.1667  plane waves:   18340
 k-point 66 :  -0.1667-0.3333 0.1667  plane waves:   18362
 k-point 67 :   0.0000-0.1667 0.1667  plane waves:   18352
 k-point 68 :   0.1667-0.1667 0.1667  plane waves:   18358
 k-point 69 :   0.3333-0.1667 0.1667  plane waves:   18370
 k-point 70 :   0.5000-0.1667 0.1667  plane waves:   18348
 k-point 71 :  -0.3333-0.1667 0.1667  plane waves:   18370
 k-point 72 :  -0.1667-0.1667 0.1667  plane waves:   18358
 k-point 73 :   0.0000 0.0000 0.3333  plane waves:   18442
 k-point 74 :   0.1667 0.0000 0.3333  plane waves:   18372
 k-point 75 :   0.3333 0.0000 0.3333  plane waves:   18386
 k-point 76 :   0.5000 0.0000 0.3333  plane waves:   18304
 k-point 77 :  -0.3333 0.0000 0.3333  plane waves:   18386
 k-point 78 :  -0.1667 0.0000 0.3333  plane waves:   18372
 k-point 79 :   0.0000 0.1667 0.3333  plane waves:   18380
 k-point 80 :   0.1667 0.1667 0.3333  plane waves:   18360
 k-point 81 :   0.3333 0.1667 0.3333  plane waves:   18340
 k-point 82 :   0.5000 0.1667 0.3333  plane waves:   18356
 k-point 83 :  -0.3333 0.1667 0.3333  plane waves:   18340
 k-point 84 :  -0.1667 0.1667 0.3333  plane waves:   18360
 k-point 85 :   0.0000 0.3333 0.3333  plane waves:   18382
[...]
atom    2spin    4
atom    3spin    1
atom    3spin    2
atom    3spin    3
atom    3spin    4
atom    4spin    1
atom    4spin    2
atom    4spin    3
atom    4spin    4
atom    5spin    1
atom    5spin    2
atom    5spin    3
atom    5spin    4
atom    6spin    1
atom    6spin    2
atom    6spin    3
atom    6spin    4
atom    7spin    1
   0.25495   0.00000  -0.00000   0.00000  -0.00706  -0.00011  -0.00057  -0.00047   0.00023  -0.00000   0.00000   0.00000   0.00000  -0.00000  -0.00006   0.00000   0.00002   0.00028
   0.00000   1.10905   0.00001  -0.00626  -0.00000  -0.00000   0.00000  -0.00000  -0.00000  -0.00000   0.00000  -0.00009   0.00759   0.00000  -0.00000  -0.00000  -0.00000   0.00000
  -0.00000   0.00001   1.10821  -0.00005  -0.00000  -0.00000  -0.00000   0.00000  -0.00000  -0.00000   0.00009  -0.00000  -0.00007   0.00000   0.00000  -0.00000   0.00000  -0.00000
   0.00000  -0.00626  -0.00005   1.10936  -0.00000  -0.00000   0.00000  -0.00000   0.00000  -0.00000  -0.00759   0.00007  -0.00000  -0.00000   0.00000  -0.00000  -0.00000  -0.00000
  -0.00706  -0.00000  -0.00000  -0.00000   0.41410  -0.00423   0.00733  -0.00382   0.00013   0.00000  -0.00000  -0.00000   0.00000   0.00000   0.00020   0.00007  -0.00106   0.01571
  -0.00011  -0.00000  -0.00000  -0.00000  -0.00423   0.40777   0.00383   0.08275  -0.00021   0.00006   0.00000  -0.00000  -0.00000  -0.00020   0.00000  -0.00052   0.03562  -0.09240
  -0.00057   0.00000  -0.00000   0.00000   0.00733   0.00383   0.41266   0.00328  -0.00049  -0.00000   0.00000   0.00000   0.00000  -0.00007   0.00052  -0.00000   0.00062  -0.00341
  -0.00047  -0.00000   0.00000  -0.00000  -0.00382   0.08275   0.00328   0.39006  -0.02146  -0.00002   0.00000  -0.00000   0.00000   0.00106  -0.03562  -0.00062  -0.00000  -0.08071
   0.00023  -0.00000  -0.00000   0.00000   0.00013  -0.00021  -0.00049  -0.02146   0.38840  -0.00028  -0.00000   0.00000   0.00000  -0.01571   0.09240   0.00341   0.08071   0.00000
atom    7spin    2
   0.00251  -0.00000   0.00000  -0.00000   0.00087   0.00005   0.00008   0.00007  -0.00010  -0.00220  -0.00000  -0.00000   0.00000  -0.00071  -0.00013   0.00009  -0.00012   0.00030
   0.00000   0.00070  -0.00012   0.00020   0.00000  -0.00000  -0.00000  -0.00000   0.00000  -0.00000  -0.00083  -0.00757  -0.00014   0.00000   0.00000  -0.00000   0.00000   0.00000
   0.00000   0.00012   0.00077  -0.00757  -0.00000   0.00000   0.00000   0.00000   0.00000  -0.00000   0.00757  -0.00071  -0.00012  -0.00000   0.00000  -0.00000   0.00000  -0.00000
   0.00000   0.00020   0.00757   0.00076  -0.00000  -0.00000  -0.00000  -0.00000  -0.00000   0.00000  -0.00014   0.00012  -0.00064   0.00000  -0.00000  -0.00000   0.00000   0.00000
   0.00087   0.00000  -0.00000   0.00000   0.00470   0.00858   0.00093   0.00332  -0.00278  -0.00071  -0.00000   0.00000   0.00000  -0.00459  -0.00330  -0.00104  -0.00804  -0.00245
  -0.00005   0.00000  -0.00000  -0.00000  -0.00857   0.09148   0.00227   0.07888  -0.06971   0.00013   0.00000  -0.00000   0.00000   0.00330  -0.09873  -0.01354  -0.06259  -0.07076
   0.00008   0.00000   0.00000   0.00000   0.00093  -0.00227   0.00480  -0.01326   0.00269   0.00009  -0.00000  -0.00000   0.00000  -0.00104   0.01354  -0.00497   0.00199   0.00203
  -0.00007  -0.00000  -0.00000  -0.00000  -0.00332   0.07889   0.01326   0.10681  -0.05994   0.00012  -0.00000  -0.00000   0.00000   0.00804  -0.06259  -0.00199  -0.04239  -0.06685
  -0.00010   0.00000  -0.00000   0.00000  -0.00278   0.06971   0.00269   0.05994   0.07730   0.00030  -0.00000  -0.00000   0.00000  -0.00245   0.07077   0.00203   0.06686  -0.08556
atom    7spin    3
   0.00251   0.00000   0.00000   0.00000   0.00087  -0.00005   0.00008  -0.00007  -0.00010   0.00220   0.00000   0.00000  -0.00000   0.00071  -0.00013  -0.00009  -0.00012  -0.00030
  -0.00000   0.00070   0.00012   0.00020   0.00000   0.00000   0.00000  -0.00000   0.00000   0.00000   0.00083  -0.00757   0.00014   0.00000  -0.00000   0.00000   0.00000   0.00000
   0.00000  -0.00012   0.00077   0.00757  -0.00000  -0.00000   0.00000  -0.00000  -0.00000   0.00000   0.00757   0.00071  -0.00012  -0.00000   0.00000   0.00000   0.00000   0.00000
  -0.00000   0.00020  -0.00757   0.00076   0.00000  -0.00000   0.00000  -0.00000   0.00000  -0.00000   0.00014   0.00012   0.00064  -0.00000  -0.00000  -0.00000  -0.00000  -0.00000
   0.00087   0.00000  -0.00000  -0.00000   0.00470  -0.00857   0.00093  -0.00332  -0.00278   0.00071  -0.00000   0.00000  -0.00000   0.00459  -0.00330   0.00104  -0.00804   0.00245
   0.00005  -0.00000   0.00000  -0.00000   0.00858   0.09148  -0.00227   0.07889   0.06971   0.00013  -0.00000  -0.00000   0.00000   0.00330   0.09873  -0.01354   0.06259  -0.07077
   0.00008  -0.00000   0.00000  -0.00000   0.00093   0.00227   0.00480   0.01326   0.00269  -0.00009   0.00000   0.00000   0.00000   0.00104   0.01354   0.00497   0.00199  -0.00203
   0.00007  -0.00000   0.00000  -0.00000   0.00332   0.07888  -0.01326   0.10681   0.05994   0.00012  -0.00000  -0.00000  -0.00000   0.00804   0.06259  -0.00199   0.04239  -0.06686
  -0.00010   0.00000   0.00000  -0.00000  -0.00278  -0.06971   0.00269  -0.05994   0.07730  -0.00030  -0.00000   0.00000  -0.00000   0.00245   0.07076  -0.00203   0.06685   0.08556
atom    7spin    4
   0.25495  -0.00000   0.00000  -0.00000  -0.00706   0.00011  -0.00057   0.00047   0.00023   0.00000  -0.00000  -0.00000   0.00000   0.00000  -0.00006  -0.00000   0.00002  -0.00028
  -0.00000   1.10905  -0.00001  -0.00626   0.00000  -0.00000   0.00000  -0.00000   0.00000   0.00000   0.00000  -0.00009  -0.00759  -0.00000  -0.00000  -0.00000   0.00000  -0.00000
   0.00000  -0.00001   1.10821   0.00005  -0.00000  -0.00000   0.00000   0.00000   0.00000   0.00000   0.00009   0.00000  -0.00007  -0.00000   0.00000   0.00000  -0.00000   0.00000
  -0.00000  -0.00626   0.00005   1.10935  -0.00000  -0.00000   0.00000   0.00000  -0.00000  -0.00000   0.00759   0.00007   0.00000   0.00000  -0.00000   0.00000  -0.00000   0.00000
  -0.00706   0.00000  -0.00000  -0.00000   0.41410   0.00423   0.00733   0.00382   0.00013  -0.00000   0.00000   0.00000  -0.00000  -0.00000   0.00020  -0.00007  -0.00106  -0.01571
   0.00011  -0.00000  -0.00000  -0.00000   0.00423   0.40776  -0.00383   0.08274   0.00020   0.00006   0.00000  -0.00000   0.00000  -0.00020  -0.00000  -0.00052  -0.03562  -0.09240
  -0.00057   0.00000   0.00000   0.00000   0.00733  -0.00383   0.41266  -0.00328  -0.00049   0.00000   0.00000  -0.00000  -0.00000   0.00007   0.00052   0.00000   0.00062   0.00341
   0.00047  -0.00000   0.00000   0.00000   0.00382   0.08274  -0.00328   0.39006   0.02146  -0.00002  -0.00000   0.00000   0.00000   0.00106   0.03562  -0.00062   0.00000  -0.08071
   0.00023   0.00000   0.00000  -0.00000   0.00013   0.00020  -0.00049   0.02146   0.38841   0.00028   0.00000  -0.00000  -0.00000   0.01571   0.09240  -0.00341   0.08071  -0.00000
atom    8spin    1
   0.25495  -0.00000  -0.00000  -0.00000   0.00706   0.00011  -0.00057  -0.00047   0.00023  -0.00000   0.00000   0.00000  -0.00000  -0.00000  -0.00006  -0.00000  -0.00002  -0.00028
  -0.00000   1.10905  -0.00001   0.00626   0.00000  -0.00000  -0.00000  -0.00000   0.00000  -0.00000  -0.00000  -0.00009   0.00759   0.00000   0.00000  -0.00000   0.00000  -0.00000
  -0.00000  -0.00001   1.10821  -0.00005  -0.00000  -0.00000  -0.00000  -0.00000  -0.00000  -0.00000   0.00009  -0.00000   0.00007  -0.00000   0.00000  -0.00000   0.00000  -0.00000
  -0.00000   0.00626  -0.00005   1.10936  -0.00000  -0.00000  -0.00000  -0.00000  -0.00000   0.00000  -0.00759  -0.00007   0.00000   0.00000  -0.00000  -0.00000  -0.00000  -0.00000
   0.00706   0.00000  -0.00000  -0.00000   0.41410  -0.00423  -0.00733   0.00382  -0.00013   0.00000  -0.00000   0.00000  -0.00000  -0.00000  -0.00020   0.00007  -0.00106   0.01571
   0.00011  -0.00000  -0.00000  -0.00000  -0.00423   0.40777  -0.00383  -0.08274   0.00021   0.00006  -0.00000  -0.00000   0.00000   0.00020   0.00000  -0.00052   0.03562  -0.09240
  -0.00057  -0.00000  -0.00000  -0.00000  -0.00733  -0.00383   0.41266   0.00329  -0.00049   0.00000   0.00000   0.00000   0.00000  -0.00007   0.00052  -0.00000  -0.00062   0.00341
  -0.00047  -0.00000  -0.00000  -0.00000   0.00382  -0.08274   0.00329   0.39006  -0.02146   0.00002  -0.00000  -0.00000   0.00000   0.00106  -0.03562   0.00062  -0.00000   0.08071
   0.00023   0.00000  -0.00000  -0.00000  -0.00013   0.00021  -0.00049  -0.02146   0.38841   0.00028   0.00000   0.00000   0.00000  -0.01571   0.09240  -0.00341  -0.08071   0.00000
atom    8spin    2
   0.00251  -0.00000   0.00000   0.00000  -0.00087  -0.00005   0.00008   0.00007  -0.00010   0.00220   0.00000  -0.00000   0.00000  -0.00071  -0.00013  -0.00009   0.00012  -0.00030
   0.00000   0.00070   0.00012  -0.00020   0.00000   0.00000  -0.00000  -0.00000  -0.00000  -0.00000   0.00083  -0.00757  -0.00014  -0.00000   0.00000   0.00000   0.00000   0.00000
  -0.00000  -0.00012   0.00077  -0.00757  -0.00000   0.00000  -0.00000   0.00000   0.00000  -0.00000   0.00757   0.00071   0.00012   0.00000  -0.00000  -0.00000   0.00000  -0.00000
   0.00000  -0.00020   0.00757   0.00076  -0.00000  -0.00000  -0.00000   0.00000   0.00000   0.00000  -0.00014  -0.00012   0.00064   0.00000   0.00000  -0.00000  -0.00000  -0.00000
  -0.00087   0.00000  -0.00000  -0.00000   0.00470   0.00857  -0.00093  -0.00332   0.00278  -0.00071   0.00000   0.00000  -0.00000   0.00459   0.00330  -0.00104  -0.00804  -0.00245
   0.00004  -0.00000  -0.00000  -0.00000  -0.00858   0.09148  -0.00227  -0.07888   0.06971   0.00013   0.00000  -0.00000   0.00000  -0.00330   0.09873  -0.01354  -0.06259  -0.07077
   0.00008   0.00000   0.00000   0.00000  -0.00093   0.00227   0.00480  -0.01326   0.00269  -0.00009  -0.00000   0.00000  -0.00000  -0.00104   0.01354   0.00497  -0.00199  -0.00203
  -0.00007  -0.00000  -0.00000  -0.00000   0.00332  -0.07888   0.01326   0.10681  -0.05995  -0.00012   0.00000  -0.00000   0.00000   0.00804  -0.06260   0.00199   0.04239   0.06686
  -0.00010  -0.00000  -0.00000   0.00000   0.00278  -0.06970   0.00269   0.05993   0.07731  -0.00030  -0.00000  -0.00000  -0.00000  -0.00245   0.07077  -0.00203  -0.06685   0.08555
atom    8spin    3
   0.00251   0.00000  -0.00000   0.00000  -0.00087   0.00004   0.00008  -0.00007  -0.00010  -0.00220   0.00000   0.00000  -0.00000   0.00071  -0.00013   0.00009   0.00012   0.00030
  -0.00000   0.00070  -0.00012  -0.00020   0.00000  -0.00000   0.00000  -0.00000  -0.00000  -0.00000  -0.00083  -0.00757   0.00014  -0.00000  -0.00000   0.00000  -0.00000   0.00000
   0.00000   0.00012   0.00077   0.00757  -0.00000  -0.00000   0.00000  -0.00000  -0.00000   0.00000   0.00757  -0.00071   0.00012  -0.00000   0.00000  -0.00000   0.00000   0.00000
   0.00000  -0.00020  -0.00757   0.00076  -0.00000  -0.00000   0.00000  -0.00000   0.00000  -0.00000   0.00014  -0.00012  -0.00064   0.00000  -0.00000   0.00000  -0.00000   0.00000
  -0.00087   0.00000  -0.00000  -0.00000   0.00470  -0.00858  -0.00093   0.00332   0.00278   0.00071   0.00000  -0.00000  -0.00000  -0.00459   0.00330   0.00104  -0.00804   0.00245
  -0.00005   0.00000   0.00000  -0.00000   0.00857   0.09148   0.00227  -0.07888  -0.06970   0.00013  -0.00000   0.00000  -0.00000  -0.00330  -0.09873  -0.01354   0.06260  -0.07077
   0.00008  -0.00000  -0.00000  -0.00000  -0.00093  -0.00227   0.00480   0.01326   0.00269   0.00009  -0.00000   0.00000   0.00000   0.00104   0.01354  -0.00497  -0.00199   0.00203
   0.00007  -0.00000   0.00000   0.00000  -0.00332  -0.07888  -0.01326   0.10681   0.05993  -0.00012  -0.00000  -0.00000   0.00000   0.00804   0.06259   0.00199  -0.04239   0.06685
  -0.00010  -0.00000   0.00000   0.00000   0.00278   0.06971   0.00269  -0.05995   0.07731   0.00030  -0.00000   0.00000   0.00000   0.00245   0.07077   0.00203  -0.06686  -0.08555
atom    8spin    4
   0.25495   0.00000  -0.00000  -0.00000   0.00706  -0.00011  -0.00057   0.00047   0.00023  -0.00000  -0.00000  -0.00000  -0.00000   0.00000  -0.00006   0.00000  -0.00002   0.00028
   0.00000   1.10905   0.00001   0.00626  -0.00000   0.00000   0.00000   0.00000   0.00000   0.00000   0.00000  -0.00009  -0.00759  -0.00000   0.00000   0.00000  -0.00000   0.00000
  -0.00000   0.00001   1.10821   0.00005   0.00000   0.00000  -0.00000  -0.00000   0.00000   0.00000   0.00009   0.00000   0.00007   0.00000  -0.00000   0.00000   0.00000  -0.00000
  -0.00000   0.00626   0.00005   1.10935   0.00000   0.00000   0.00000   0.00000  -0.00000   0.00000   0.00759  -0.00007   0.00000  -0.00000   0.00000   0.00000   0.00000   0.00000
   0.00706  -0.00000   0.00000   0.00000   0.41410   0.00423  -0.00733  -0.00382  -0.00013  -0.00000   0.00000  -0.00000   0.00000  -0.00000  -0.00020  -0.00007  -0.00106  -0.01571
  -0.00011   0.00000   0.00000   0.00000   0.00423   0.40777   0.00383  -0.08275  -0.00020   0.00006  -0.00000   0.00000  -0.00000   0.00020  -0.00000  -0.00052  -0.03562  -0.09240
  -0.00057   0.00000  -0.00000   0.00000  -0.00733   0.00383   0.41266  -0.00328  -0.00049  -0.00000  -0.00000  -0.00000  -0.00000   0.00007   0.00052  -0.00000  -0.00062  -0.00341
   0.00047   0.00000  -0.00000   0.00000  -0.00382  -0.08275  -0.00328   0.39007   0.02145   0.00002   0.00000  -0.00000  -0.00000   0.00106   0.03562   0.00062   0.00000   0.08071
   0.00023   0.00000   0.00000  -0.00000  -0.00013  -0.00020  -0.00049   0.02145   0.38839  -0.00028  -0.00000   0.00000  -0.00000   0.01571   0.09240   0.00341  -0.08071  -0.00000
atom    9spin    1
atom    9spin    2
atom    9spin    3
atom    9spin    4
atom   10spin    1
atom   10spin    2
atom   10spin    3
atom   10spin    4
atom   11spin    1
atom   11spin    2
atom   11spin    3
atom   11spin    4
atom   12spin    1
atom   12spin    2
atom   12spin    3
atom   12spin    4
atom   13spin    1
atom   13spin    2
atom   13spin    3
atom   13spin    4
atom   14spin    1
atom   14spin    2
atom   14spin    3
atom   14spin    4
atom   15spin    1
atom   15spin    2
atom   15spin    3
atom   15spin    4
atom   16spin    1
atom   16spin    2
atom   16spin    3
atom   16spin    4
atom   17spin    1
atom   17spin    2
atom   17spin    3
atom   17spin    4
atom   18spin    1
atom   18spin    2
atom   18spin    3
atom   18spin    4
atom   19spin    1
atom   19spin    2
atom   19spin    3
atom   19spin    4
atom   20spin    1
atom   20spin    2
atom   20spin    3
atom   20spin    4
atom    7
atom    8
 


 total charge     
 
# of ion     s       p       d       tot
----------------------------------------
  1        2.002   5.636   0.284   7.922
  2        2.002   5.636   0.284   7.922
  3        2.002   5.636   0.284   7.922
  4        2.002   5.636   0.284   7.922
  5        0.120   6.088   0.061   6.269
  6        0.120   6.088   0.061   6.269
  7        0.491   6.615   3.970  11.076
  8        0.491   6.615   3.970  11.076
  9        1.557   3.462   0.000   5.019
 10        1.557   3.462   0.000   5.019
 11        1.557   3.462   0.000   5.019
 12        1.557   3.462   0.000   5.019
 13        1.555   3.461   0.000   5.016
 14        1.555   3.461   0.000   5.016
 15        1.560   3.464   0.000   5.024
 16        1.560   3.464   0.000   5.024
 17        1.560   3.464   0.000   5.024
 18        1.560   3.464   0.000   5.024
 19        1.555   3.461   0.000   5.016
 20        1.555   3.461   0.000   5.016
------------------------------------------------
tot       27.921  89.496   9.197 126.614
 


 magnetization (x)
 
# of ion     s       p       d       tot
----------------------------------------
  1        0.001   0.001   0.004   0.006
  2        0.001   0.001   0.004   0.006
  3        0.001   0.001   0.004   0.006
  4        0.001   0.001   0.004   0.006
  5       -0.000  -0.000   0.000  -0.000
  6       -0.000  -0.000   0.000  -0.000
  7        0.005   0.004   0.566   0.575
  8        0.005   0.004   0.566   0.575
  9        0.000   0.020   0.000   0.020
 10        0.000   0.020   0.000   0.020
 11        0.000   0.020   0.000   0.020
 12        0.000   0.020   0.000   0.020
 13        0.000   0.029   0.000   0.029
 14        0.000   0.029   0.000   0.029
 15        0.000   0.002   0.000   0.002
 16        0.000   0.002   0.000   0.002
 17        0.000   0.002   0.000   0.002
 18        0.000   0.002   0.000   0.002
 19        0.000   0.029   0.000   0.029
 20        0.000   0.029   0.000   0.029
------------------------------------------------
tot        0.014   0.212   1.149   1.375
 


 magnetization (y)
 
# of ion     s       p       d       tot
----------------------------------------
  1        0.000  -0.000  -0.001  -0.001
  2        0.000  -0.000  -0.001  -0.001
  3       -0.000   0.000   0.001   0.001
  4       -0.000   0.000   0.001   0.001
  5        0.000   0.000  -0.000   0.000
  6       -0.000  -0.000   0.000  -0.000
  7        0.004   0.004   0.469   0.477
  8       -0.004  -0.004  -0.469  -0.477
  9       -0.000   0.011   0.000   0.011
 10       -0.000   0.011   0.000   0.011
 11        0.000  -0.011   0.000  -0.011
 12        0.000  -0.011   0.000  -0.011
 13        0.000   0.024   0.000   0.024
 14        0.000   0.024   0.000   0.024
 15       -0.000   0.003   0.000   0.003
 16       -0.000   0.003   0.000   0.003
 17        0.000  -0.003   0.000  -0.003
 18        0.000  -0.003   0.000  -0.003
 19       -0.000  -0.024   0.000  -0.024
 20       -0.000  -0.024   0.000  -0.024
------------------------------------------------
tot        0.000   0.000  -0.000   0.000
 


 magnetization (z)
 
# of ion     s       p       d       tot
----------------------------------------
  1       -0.000  -0.000   0.000  -0.000
  2       -0.000  -0.000   0.000  -0.000
  3       -0.000  -0.000   0.000   0.000
  4       -0.000  -0.000   0.000   0.000
  5       -0.000  -0.000   0.000  -0.000
  6       -0.000  -0.000  -0.000  -0.000
  7        0.000   0.000   0.000   0.000
  8        0.000  -0.000   0.000   0.000
  9       -0.000  -0.000   0.000  -0.000
 10       -0.000  -0.000   0.000  -0.000
 11       -0.000  -0.000   0.000  -0.000
 12       -0.000  -0.000   0.000  -0.000
 13        0.000   0.000   0.000   0.000
 14        0.000  -0.000   0.000   0.000
 15       -0.000  -0.000   0.000  -0.000
 16       -0.000  -0.000   0.000  -0.000
 17        0.000  -0.000   0.000  -0.000
 18       -0.000  -0.000   0.000  -0.000
 19       -0.000  -0.000   0.000  -0.000
 20       -0.000  -0.000   0.000  -0.000
------------------------------------------------
tot       -0.000  -0.000   0.000  -0.000
 
 BZINTS: Fermi energy:  4.047946;154.000000 electrons
         Band energy:***********;  BLOECHL correction:  0.000000
 BZINTS: Fermi energy:  4.047946;154.000000 electrons
         Band energy:***********;  BLOECHL correction:  0.000000
 BZINTS: Fermi energy:  4.047946;154.000000 electrons
         Band energy:***********;  BLOECHL correction:  0.000000
 BZINTS: Fermi energy:  4.047946;154.000000 electrons
         Band energy:***********;  BLOECHL correction:  0.000000

 total amount of memory used by VASP on root node   326020. kBytes
========================================================================

   base      :      30000. kBytes
   nonl-proj :     100287. kBytes
   fftplans  :       2111. kBytes
   grid      :       9031. kBytes
   one-center:        124. kBytes
   wavefun   :     184467. kBytes
 
  
  
 General timing and accounting informations for this job:
 ========================================================
  
                  Total CPU time used (sec):     7721.563
                            User time (sec):     7620.432
                          System time (sec):      101.132
                         Elapsed time (sec):     7748.698
  
                   Maximum memory used (kb):      578436.
                   Average memory used (kb):           0.
  
                          Minor page faults:      2731656
                          Major page faults:           59
                 Voluntary context switches:        83884
