vasp.5.3.5 31Mar14 (build Apr 08 2022 12:19:38) complex git commit undefined                        
 executed on       Monch_standard date 2022.09.15  11:36:01
 running on   36 total cores
 distrk:  each k-point on   36 cores,    1 groups
 distr:  one band on NCORES_PER_BAND=   9 cores,    4 groups


--------------------------------------------------------------------------------------------------------


 INCAR:
 POTCAR:    PAW Cr_sv 23Jul2007                   
 POTCAR:    PAW O 22Mar2012                       
 POTCAR:    PAW Cr_sv 23Jul2007                   
   VRHFIN =Cr : p6d5s1                                                          
   LEXCH  = CA                                                                  
   EATOM  =  2370.1225 eV,  174.1991 Ry                                         
                                                                                
   TITEL  = PAW Cr_sv 23Jul2007                                                 
   LULTRA =        F    use ultrasoft PP ?                                      
   IUNSCR =        1    unscreen: 0-lin 1-nonlin 2-no                           
   RPACOR =    1.600    partial core radius                                     
   POMASS =   51.996; ZVAL   =   14.000    mass and valenz                      
   RCORE  =    1.900    outmost cutoff radius                                   
   RWIGS  =    2.200; RWIGS  =    1.164    wigner-seitz radius (au A)           
   ENMAX  =  395.443; ENMIN  =  296.582 eV                                      
   RCLOC  =    1.007    cutoff for local pot                                    
   LCOR   =        T    correct aug charges                                     
   LPAW   =        T    paw PP                                                  
   EAUG   =  762.590                                                            
   RMAX   =    1.944    core radius for proj-oper                               
   RAUG   =    1.300    factor for augmentation sphere                          
   RDEP   =    2.020    radius for radial grids                                 
   RDEPT  =    1.561    core radius for aug-charge                              
                                                                                
   Atomic configuration                                                         
    8 entries                                                                   
     n  l   j            E        occ.                                          
     1  0  0.50     -5851.9199   2.0000                                         
     2  0  0.50      -664.2414   2.0000                                         
     2  1  1.50      -559.7085   6.0000                                         
     3  0  0.50       -73.4060   2.0000                                         
     4  0  0.50        -4.1894   1.0000                                         
     3  1  1.50       -45.2981   6.0000                                         
     3  2  2.50        -3.1388   5.0000                                         
     4  3  2.50        -1.3606   0.0000                                         
   Description                                                                  
     l       E           TYP  RCUT    TYP  RCUT                                 
     0    -73.4060045     23  1.900                                             
     0     -4.1894292     23  1.900                                             
     0    108.8466080     23  1.900                                             
     1    -45.2981133     23  1.700                                             
     1     20.4087390     23  1.700                                             
     2     -3.1388438     23  1.900                                             
     2     -4.4994264     23  1.900                                             
  local pseudopotential read in
  partial core-charges read in
  partial kinetic energy density read in
  kinetic energy density of atom read in
  atomic valenz-charges read in
  non local Contribution for L=           0  read in
    real space projection operators read in
  non local Contribution for L=           0  read in
    real space projection operators read in
  non local Contribution for L=           0  read in
    real space projection operators read in
  non local Contribution for L=           1  read in
    real space projection operators read in
  non local Contribution for L=           1  read in
    real space projection operators read in
  non local Contribution for L=           2  read in
    real space projection operators read in
  non local Contribution for L=           2  read in
    real space projection operators read in
    PAW grid and wavefunctions read in
 
   number of l-projection  operators is LMAX  =           7
   number of lm-projection operators is LMMAX =          19
 
 POTCAR:    PAW O 22Mar2012                       
   VRHFIN =O: s2p4                                                              
   LEXCH  = CA                                                                  
   EATOM  =   431.4380 eV,   31.7098 Ry                                         
                                                                                
   TITEL  = PAW O 22Mar2012                                                     
   LULTRA =        F    use ultrasoft PP ?                                      
   IUNSCR =        1    unscreen: 0-lin 1-nonlin 2-no                           
   RPACOR =    1.200    partial core radius                                     
   POMASS =   16.000; ZVAL   =    6.000    mass and valenz                      
   RCORE  =    1.520    outmost cutoff radius                                   
   RWIGS  =    1.550; RWIGS  =    0.820    wigner-seitz radius (au A)           
   ENMAX  =  400.000; ENMIN  =  300.000 eV                                      
   ICORE  =        2    local potential                                         
   LCOR   =        T    correct aug charges                                     
   LPAW   =        T    paw PP                                                  
   EAUG   =  605.392                                                            
   DEXC   =    0.000                                                            
   RMAX   =    1.553    core radius for proj-oper                               
   RAUG   =    1.300    factor for augmentation sphere                          
   RDEP   =    1.550    radius for radial grids                                 
   RDEPT  =    1.329    core radius for aug-charge                              
                                                                                
   Atomic configuration                                                         
    4 entries                                                                   
     n  l   j            E        occ.                                          
     1  0  0.50      -510.4605   2.0000                                         
     2  0  0.50       -23.7367   2.0000                                         
     2  1  0.50        -9.1995   4.0000                                         
     3  2  1.50        -9.5241   0.0000                                         
   Description                                                                  
     l       E           TYP  RCUT    TYP  RCUT                                 
     0    -23.7366993     23  1.200                                             
     0     -9.5240782     23  1.200                                             
     1     -9.1994509     23  1.520                                             
     1      8.1634956     23  1.520                                             
     2     -9.5240782      7  1.500                                             
  local pseudopotential read in
  partial core-charges read in
  partial kinetic energy density read in
  kinetic energy density of atom read in
  atomic valenz-charges read in
  non local Contribution for L=           0  read in
    real space projection operators read in
  non local Contribution for L=           0  read in
    real space projection operators read in
  non local Contribution for L=           1  read in
    real space projection operators read in
  non local Contribution for L=           1  read in
    real space projection operators read in
    PAW grid and wavefunctions read in
 
   number of l-projection  operators is LMAX  =           4
   number of lm-projection operators is LMMAX =           8
 
  PAW Cr_sv 23Jul2007                   :
 energy of atom  1       EATOM=-2370.1225
 kinetic energy error for atom=    0.0810 (will be added to EATOM!!)
  PAW O 22Mar2012                       :
 energy of atom  2       EATOM= -431.4380
 kinetic energy error for atom=    0.0220 (will be added to EATOM!!)
 
 
 POSCAR: Cr  O                                   
  positions in direct lattice
  No initial velocities read in
 exchange correlation table for  LEXCH =        2
   RHO(1)=    0.500       N(1)  =     2000
   RHO(2)=  100.500       N(2)  =     4000
 


--------------------------------------------------------------------------------------------------------


 ion  position               nearest neighbor table
   1  0.153  0.153  0.153-   6 1.94   8 1.94  10 1.94   9 1.99   5 1.99   7 1.99   2 2.62
   2  0.347  0.347  0.347-  10 1.94   8 1.94   6 1.94   9 1.99   5 1.99   7 1.99   1 2.62
   3  0.653  0.653  0.653-   9 1.94   7 1.94   5 1.94   6 1.99  10 1.99   8 1.99   4 2.62
   4  0.847  0.847  0.847-   5 1.94   7 1.94   9 1.94   6 1.99  10 1.99   8 1.99   3 2.62
   5  0.557  0.943  0.250-   4 1.94   3 1.94   1 1.99   2 1.99
   6  0.443  0.057  0.750-   1 1.94   2 1.94   3 1.99   4 1.99
   7  0.250  0.557  0.943-   3 1.94   4 1.94   1 1.99   2 1.99
   8  0.750  0.443  0.057-   1 1.94   2 1.94   3 1.99   4 1.99
   9  0.943  0.250  0.557-   3 1.94   4 1.94   1 1.99   2 1.99
  10  0.057  0.750  0.443-   2 1.94   1 1.94   3 1.99   4 1.99
 

IMPORTANT INFORMATION: All symmetrisations will be switched off!
NOSYMM: (Re-)initialisation of all symmetry stuff for point group C_1.

 
 
 KPOINTS: KPOINTS created by Atomic Simulation Env

Automatic generation of k-mesh.
Space group operators:
 irot       det(A)        alpha          n_x          n_y          n_z        tau_x        tau_y        tau_z
    1     1.000000     0.000002     1.000000     0.000000     0.000000     0.000000     0.000000     0.000000
 
 Subroutine IBZKPT returns following result:
 ===========================================
 
 Found     64 irreducible k-points:
 
 Following reciprocal coordinates:
            Coordinates               Weight
  0.000000  0.000000  0.000000      1.000000
  0.250000  0.000000  0.000000      1.000000
  0.500000  0.000000  0.000000      1.000000
 -0.250000  0.000000  0.000000      1.000000
  0.000000  0.250000  0.000000      1.000000
  0.250000  0.250000  0.000000      1.000000
  0.500000  0.250000  0.000000      1.000000
 -0.250000  0.250000  0.000000      1.000000
  0.000000  0.500000  0.000000      1.000000
  0.250000  0.500000  0.000000      1.000000
  0.500000  0.500000  0.000000      1.000000
 -0.250000  0.500000  0.000000      1.000000
  0.000000 -0.250000  0.000000      1.000000
  0.250000 -0.250000  0.000000      1.000000
  0.500000 -0.250000  0.000000      1.000000
 -0.250000 -0.250000  0.000000      1.000000
  0.000000  0.000000  0.250000      1.000000
  0.250000  0.000000  0.250000      1.000000
  0.500000  0.000000  0.250000      1.000000
 -0.250000  0.000000  0.250000      1.000000
  0.000000  0.250000  0.250000      1.000000
  0.250000  0.250000  0.250000      1.000000
  0.500000  0.250000  0.250000      1.000000
 -0.250000  0.250000  0.250000      1.000000
  0.000000  0.500000  0.250000      1.000000
  0.250000  0.500000  0.250000      1.000000
  0.500000  0.500000  0.250000      1.000000
 -0.250000  0.500000  0.250000      1.000000
  0.000000 -0.250000  0.250000      1.000000
  0.250000 -0.250000  0.250000      1.000000
  0.500000 -0.250000  0.250000      1.000000
 -0.250000 -0.250000  0.250000      1.000000
  0.000000  0.000000  0.500000      1.000000
  0.250000  0.000000  0.500000      1.000000
  0.500000  0.000000  0.500000      1.000000
 -0.250000  0.000000  0.500000      1.000000
  0.000000  0.250000  0.500000      1.000000
  0.250000  0.250000  0.500000      1.000000
  0.500000  0.250000  0.500000      1.000000
 -0.250000  0.250000  0.500000      1.000000
  0.000000  0.500000  0.500000      1.000000
  0.250000  0.500000  0.500000      1.000000
  0.500000  0.500000  0.500000      1.000000
 -0.250000  0.500000  0.500000      1.000000
  0.000000 -0.250000  0.500000      1.000000
  0.250000 -0.250000  0.500000      1.000000
  0.500000 -0.250000  0.500000      1.000000
 -0.250000 -0.250000  0.500000      1.000000
  0.000000  0.000000 -0.250000      1.000000
  0.250000  0.000000 -0.250000      1.000000
  0.500000  0.000000 -0.250000      1.000000
 -0.250000  0.000000 -0.250000      1.000000
  0.000000  0.250000 -0.250000      1.000000
  0.250000  0.250000 -0.250000      1.000000
  0.500000  0.250000 -0.250000      1.000000
 -0.250000  0.250000 -0.250000      1.000000
  0.000000  0.500000 -0.250000      1.000000
  0.250000  0.500000 -0.250000      1.000000
  0.500000  0.500000 -0.250000      1.000000
 -0.250000  0.500000 -0.250000      1.000000
  0.000000 -0.250000 -0.250000      1.000000
  0.250000 -0.250000 -0.250000      1.000000
  0.500000 -0.250000 -0.250000      1.000000
 -0.250000 -0.250000 -0.250000      1.000000
 
 Following cartesian coordinates:
            Coordinates               Weight
  0.000000  0.000000  0.000000      1.000000
  0.058972  0.000000  0.018525      1.000000
  0.117943  0.000000  0.037050      1.000000
 -0.058972  0.000000 -0.018525      1.000000
 -0.029486  0.051071  0.018525      1.000000
  0.029486  0.051071  0.037050      1.000000
  0.088457  0.051071  0.055575      1.000000
 -0.088457  0.051071  0.000000      1.000000
 -0.058972  0.102142  0.037050      1.000000
 -0.000000  0.102142  0.055575      1.000000
  0.058972  0.102142  0.074101      1.000000
 -0.117943  0.102142  0.018525      1.000000
  0.029486 -0.051071 -0.018525      1.000000
  0.088457 -0.051071  0.000000      1.000000
  0.147429 -0.051071  0.018525      1.000000
 -0.029486 -0.051071 -0.037050      1.000000
 -0.029486 -0.051071  0.018525      1.000000
  0.029486 -0.051071  0.037050      1.000000
  0.088457 -0.051071  0.055575      1.000000
 -0.088457 -0.051071  0.000000      1.000000
 -0.058972  0.000000  0.037050      1.000000
  0.000000  0.000000  0.055575      1.000000
  0.058972  0.000000  0.074101      1.000000
 -0.117943  0.000000  0.018525      1.000000
 -0.088457  0.051071  0.055575      1.000000
 -0.029486  0.051071  0.074101      1.000000
  0.029486  0.051071  0.092626      1.000000
 -0.147429  0.051071  0.037050      1.000000
  0.000000 -0.102142  0.000000      1.000000
  0.058972 -0.102142  0.018525      1.000000
  0.117943 -0.102142  0.037050      1.000000
 -0.058972 -0.102142 -0.018525      1.000000
 -0.058972 -0.102142  0.037050      1.000000
  0.000000 -0.102142  0.055575      1.000000
  0.058972 -0.102142  0.074101      1.000000
 -0.117943 -0.102142  0.018525      1.000000
 -0.088457 -0.051071  0.055575      1.000000
 -0.029486 -0.051071  0.074101      1.000000
  0.029486 -0.051071  0.092626      1.000000
 -0.147429 -0.051071  0.037050      1.000000
 -0.117943  0.000000  0.074101      1.000000
 -0.058972  0.000000  0.092626      1.000000
  0.000000  0.000000  0.111151      1.000000
 -0.176915  0.000000  0.055575      1.000000
 -0.029486 -0.153212  0.018525      1.000000
  0.029486 -0.153212  0.037050      1.000000
  0.088457 -0.153212  0.055575      1.000000
 -0.088457 -0.153212  0.000000      1.000000
  0.029486  0.051071 -0.018525      1.000000
  0.088457  0.051071  0.000000      1.000000
  0.147429  0.051071  0.018525      1.000000
 -0.029486  0.051071 -0.037050      1.000000
  0.000000  0.102142  0.000000      1.000000
  0.058972  0.102142  0.018525      1.000000
  0.117943  0.102142  0.037050      1.000000
 -0.058972  0.102142 -0.018525      1.000000
 -0.029486  0.153212  0.018525      1.000000
  0.029486  0.153212  0.037050      1.000000
  0.088457  0.153212  0.055575      1.000000
 -0.088457  0.153212  0.000000      1.000000
  0.058972  0.000000 -0.037050      1.000000
  0.117943  0.000000 -0.018525      1.000000
  0.176915  0.000000  0.000000      1.000000
  0.000000  0.000000 -0.055575      1.000000
 
 TETIRR: Found    384 inequivalent tetrahedra from      384


--------------------------------------------------------------------------------------------------------




 Dimension of arrays:
   k-points           NKPTS =     64   k-points in BZ     NKDIM =     64   number of bands    NBANDS=    112
   number of dos      NEDOS =   3001   number of ions     NIONS =     10
   non local maximal  LDIM  =      7   non local SUM 2l+1 LMDIM =     19
   total plane-waves  NPLWV =  64000
   max r-space proj   IRMAX =      1   max aug-charges    IRDMAX=  55122
   dimension x,y,z NGX =    40 NGY =   40 NGZ =   40
   dimension x,y,z NGXF=    64 NGYF=   64 NGZF=   64
   support grid    NGXF=   128 NGYF=  128 NGZF=  128
   ions per type =               4   6
 NGX,Y,Z   is equivalent  to a cutoff of  12.52, 12.52, 12.52 a.u.
 NGXF,Y,Z  is equivalent  to a cutoff of  20.03, 20.03, 20.03 a.u.


 I would recommend the setting:
   dimension x,y,z NGX =    39 NGY =   39 NGZ =   39
 SYSTEM =  unknown system                          
 POSCAR =  Cr  O                                   

 Startparameter for this run:
   NWRITE =      2    write-flag & timer
   PREC   = high      normal or accurate (medium, high low for compatibility)
   ISTART =      0    job   : 0-new  1-cont  2-samecut
   ICHARG =      2    charge: 1-file 2-atom 10-const
   ISPIN  =      1    spin polarized calculation?
   LNONCOLLINEAR =      T non collinear calculations
   LSORBIT =      T    spin-orbit coupling
   INIWAV =      1    electr: 0-lowe 1-rand  2-diag
   LASPH  =      T    aspherical Exc in radial PAW
   METAGGA=      F    non-selfconsistent MetaGGA calc.

 Electronic Relaxation 1
   ENCUT  =  500.0 eV  36.75 Ry    6.06 a.u.   9.69  9.69  9.69*2*pi/ulx,y,z
   ENINI  =  500.0     initial cutoff
   ENAUG  =  762.6 eV  augmentation charge cutoff
   NELM   =   2000;   NELMIN=  2; NELMDL= -5     # of ELM steps 
   EDIFF  = 0.1E-07   stopping-criterion for ELM
   LREAL  =      F    real-space projection
   NLSPLINE    = F    spline interpolate recip. space projectors
   LCOMPAT=      F    compatible to vasp.4.4
   GGA_COMPAT  = T    GGA compatible to vasp.4.4-vasp.4.6
   LMAXPAW     = -100 max onsite density
   LMAXMIX     =    6 max onsite mixed and CHGCAR
   VOSKOWN=      0    Vosko Wilk Nusair interpolation
   ROPT   =    0.00000   0.00000
 Ionic relaxation
   EDIFFG = 0.1E-06   stopping-criterion for IOM
   NSW    =      0    number of steps for IOM
   NBLOCK =      1;   KBLOCK =      1    inner block; outer block 
   IBRION =     -1    ionic relax: 0-MD 1-quasi-New 2-CG
   NFREE  =      0    steps in history (QN), initial steepest desc. (CG)
   ISIF   =      2    stress and relaxation
   IWAVPR =     10    prediction:  0-non 1-charg 2-wave 3-comb
   ISYM   =     -1    0-nonsym 1-usesym 2-fastsym
   LCORR  =      T    Harris-Foulkes like correction to forces

   POTIM  = 0.5000    time-step for ionic-motion
   TEIN   =    0.0    initial temperature
   TEBEG  =    0.0;   TEEND  =   0.0 temperature during run
   SMASS  =  -3.00    Nose mass-parameter (am)
   estimated Nose-frequenzy (Omega)   =  0.10E-29 period in steps =****** mass=  -0.645E-27a.u.
   SCALEE = 1.0000    scale energy and forces
   NPACO  =    256;   APACO  = 16.0  distance and # of slots for P.C.
   PSTRESS=    0.0 pullay stress

  Mass of Ions in am
   POMASS =  52.00 16.00
  Ionic Valenz
   ZVAL   =  14.00  6.00
  Atomic Wigner-Seitz radii
   RWIGS  =  -1.00 -1.00
  virtual crystal weights 
   VCA    =   1.00  1.00
   NELECT =      92.0000    total number of electrons
   NUPDOWN=      -1.0000    fix difference up-down

 DOS related values:
   EMIN   =  10.00;   EMAX   =-10.00  energy-range for DOS
   EFERMI =   0.00
   ISMEAR =    -5;   SIGMA  =   0.20  broadening in eV -4-tet -1-fermi 0-gaus

 Electronic relaxation 2 (details)
   IALGO  =     38    algorithm
   LDIAG  =      T    sub-space diagonalisation (order eigenvalues)
   LSUBROT=      F    optimize rotation matrix (better conditioning)
   TURBO    =      0    0=normal 1=particle mesh
   IRESTART =      0    0=no restart 2=restart with 2 vectors
   NREBOOT  =      0    no. of reboots
   NMIN     =      0    reboot dimension
   EREF     =   0.00    reference energy to select bands
   IMIX   =      4    mixing-type and parameters
     AMIX     =   0.40;   BMIX     =  1.00
     AMIX_MAG =   1.60;   BMIX_MAG =  1.00
     AMIN     =   0.10
     WC   =   100.;   INIMIX=   1;  MIXPRE=   1;  MAXMIX= -45

 Intra band minimization:
   WEIMIN = 0.0000     energy-eigenvalue tresh-hold
   EBREAK =  0.22E-10  absolut break condition
   DEPER  =   0.30     relativ break condition  

   TIME   =   0.40     timestep for ELM

  volume/ion in A,a.u.               =       9.34        63.00
  Fermi-wavevector in a.u.,A,eV,Ry     =   1.629159  3.078663 36.112008  2.654158
  Thomas-Fermi vector in A             =   2.721671
 
 Write flags
   LWAVE  =      F    write WAVECAR
   LCHARG =      T    write CHGCAR
   LVTOT  =      F    write LOCPOT, total local potential
   LVHAR  =      F    write LOCPOT, Hartree potential only
   LELF   =      F    write electronic localiz. function (ELF)
   LORBIT =     11    0 simple, 1 ext, 2 COOP (PROOUT)


 Dipole corrections
   LMONO  =      F    monopole corrections only (constant potential shift)
   LDIPOL =      F    correct potential (dipole corrections)
   IDIPOL =      0    1-x, 2-y, 3-z, 4-all directions 
   EPSILON=  1.0000000 bulk dielectric constant

 LDA+U is selected, type is set to LDAUTYPE =  1
   angular momentum for each species LDAUL =     2    1
   U (eV)           for each species LDAUU =   4.0  0.0
   J (eV)           for each species LDAUJ =   0.5  0.0
 Exchange correlation treatment:
   GGA     =    --    GGA type
   LEXCH   =     2    internal setting for exchange type
   VOSKOWN=      0    Vosko Wilk Nusair interpolation
   LHFCALC =     F    Hartree Fock is set to
   LHFONE  =     F    Hartree Fock one center treatment
   AEXX    =    0.0000 exact exchange contribution

 Linear response parameters
   LEPSILON=     F    determine dielectric tensor
   LRPA    =     F    only Hartree local field effects (RPA)
   LNABLA  =     F    use nabla operator in PAW spheres
   LVEL    =     F    velocity operator in full k-point grid
   LINTERFAST=   F  fast interpolation
   KINTER  =     0    interpolate to denser k-point grid
   CSHIFT  =0.1000    complex shift for real part using Kramers Kronig
   OMEGAMAX=  -1.0    maximum frequency
   DEG_THRESHOLD= 0.2000000E-02 threshold for treating states as degnerate
   RTIME   =    0.100 relaxation time in fs

 Orbital magnetization related:
   ORBITALMAG=     F  switch on orbital magnetization
   LCHIMAG   =     F  perturbation theory with respect to B field
   DQ        =  0.001000  dq finite difference perturbation B field



--------------------------------------------------------------------------------------------------------


 Static calculation
 charge density and potential will be updated during run
 non collinear spin polarized calculation
 Variant of blocked Davidson
 Davidson routine will perform the subspace rotation
 perform sub-space diagonalisation
    after iterative eigenvector-optimisation
 modified Broyden-mixing scheme, WC =      100.0
 initial mixing is a Kerker type mixing with AMIX =  0.4000 and BMIX =      1.0000
 Hartree-type preconditioning will be used
 using additional bands           66
 reciprocal scheme for non local part
 use partial core corrections
 calculate Harris-corrections to forces 
   (improved forces if not selfconsistent)
 use of overlap-Matrix (Vanderbilt PP)
 Fermi weights with tetrahedron method with Bloechl corrections


--------------------------------------------------------------------------------------------------------


  energy-cutoff  :      500.00
  volume of cell :       93.35
      direct lattice vectors                 reciprocal lattice vectors
     2.826223160  0.000000000  4.498393430     0.235886067  0.000000000  0.074100529
    -1.413111580  2.447581060  4.498393430    -0.117943034  0.204283326  0.074100529
    -1.413111580 -2.447581060  4.498393430    -0.117943034 -0.204283326  0.074100529

  length of vectors
     5.312539958  5.312539961  5.312539961     0.247251138  0.247251137  0.247251137


 
 k-points in units of 2pi/SCALE and weight: KPOINTS created by Atomic Simulation Env
   0.00000000  0.00000000  0.00000000       0.016
   0.05897152  0.00000000  0.01852513       0.016
   0.11794303  0.00000000  0.03705026       0.016
  -0.05897152  0.00000000 -0.01852513       0.016
  -0.02948576  0.05107083  0.01852513       0.016
   0.02948576  0.05107083  0.03705026       0.016
   0.08845728  0.05107083  0.05557540       0.016
  -0.08845728  0.05107083  0.00000000       0.016
  -0.05897152  0.10214166  0.03705026       0.016
  -0.00000000  0.10214166  0.05557540       0.016
   0.05897152  0.10214166  0.07410053       0.016
  -0.11794303  0.10214166  0.01852513       0.016
   0.02948576 -0.05107083 -0.01852513       0.016
   0.08845728 -0.05107083  0.00000000       0.016
   0.14742879 -0.05107083  0.01852513       0.016
  -0.02948576 -0.05107083 -0.03705026       0.016
  -0.02948576 -0.05107083  0.01852513       0.016
   0.02948576 -0.05107083  0.03705026       0.016
   0.08845728 -0.05107083  0.05557540       0.016
  -0.08845728 -0.05107083  0.00000000       0.016
  -0.05897152  0.00000000  0.03705026       0.016
   0.00000000  0.00000000  0.05557540       0.016
   0.05897152  0.00000000  0.07410053       0.016
  -0.11794303  0.00000000  0.01852513       0.016
  -0.08845728  0.05107083  0.05557540       0.016
  -0.02948576  0.05107083  0.07410053       0.016
   0.02948576  0.05107083  0.09262566       0.016
  -0.14742879  0.05107083  0.03705026       0.016
   0.00000000 -0.10214166  0.00000000       0.016
   0.05897152 -0.10214166  0.01852513       0.016
   0.11794303 -0.10214166  0.03705026       0.016
  -0.05897152 -0.10214166 -0.01852513       0.016
  -0.05897152 -0.10214166  0.03705026       0.016
   0.00000000 -0.10214166  0.05557540       0.016
   0.05897152 -0.10214166  0.07410053       0.016
  -0.11794303 -0.10214166  0.01852513       0.016
  -0.08845728 -0.05107083  0.05557540       0.016
  -0.02948576 -0.05107083  0.07410053       0.016
   0.02948576 -0.05107083  0.09262566       0.016
  -0.14742879 -0.05107083  0.03705026       0.016
  -0.11794303  0.00000000  0.07410053       0.016
  -0.05897152  0.00000000  0.09262566       0.016
   0.00000000  0.00000000  0.11115079       0.016
  -0.17691455  0.00000000  0.05557540       0.016
  -0.02948576 -0.15321249  0.01852513       0.016
   0.02948576 -0.15321249  0.03705026       0.016
   0.08845728 -0.15321249  0.05557540       0.016
  -0.08845728 -0.15321249  0.00000000       0.016
   0.02948576  0.05107083 -0.01852513       0.016
   0.08845728  0.05107083  0.00000000       0.016
   0.14742879  0.05107083  0.01852513       0.016
  -0.02948576  0.05107083 -0.03705026       0.016
   0.00000000  0.10214166  0.00000000       0.016
   0.05897152  0.10214166  0.01852513       0.016
   0.11794303  0.10214166  0.03705026       0.016
  -0.05897152  0.10214166 -0.01852513       0.016
  -0.02948576  0.15321249  0.01852513       0.016
   0.02948576  0.15321249  0.03705026       0.016
   0.08845728  0.15321249  0.05557540       0.016
  -0.08845728  0.15321249  0.00000000       0.016
   0.05897152  0.00000000 -0.03705026       0.016
   0.11794303  0.00000000 -0.01852513       0.016
   0.17691455  0.00000000  0.00000000       0.016
   0.00000000  0.00000000 -0.05557540       0.016
 
 k-points in reciprocal lattice and weights: KPOINTS created by Atomic Simulation Env
   0.00000000  0.00000000  0.00000000       0.016
   0.25000000  0.00000000  0.00000000       0.016
   0.50000000  0.00000000  0.00000000       0.016
  -0.25000000  0.00000000  0.00000000       0.016
   0.00000000  0.25000000  0.00000000       0.016
   0.25000000  0.25000000  0.00000000       0.016
   0.50000000  0.25000000  0.00000000       0.016
  -0.25000000  0.25000000  0.00000000       0.016
   0.00000000  0.50000000  0.00000000       0.016
   0.25000000  0.50000000  0.00000000       0.016
   0.50000000  0.50000000  0.00000000       0.016
  -0.25000000  0.50000000  0.00000000       0.016
   0.00000000 -0.25000000  0.00000000       0.016
   0.25000000 -0.25000000  0.00000000       0.016
   0.50000000 -0.25000000  0.00000000       0.016
  -0.25000000 -0.25000000  0.00000000       0.016
   0.00000000  0.00000000  0.25000000       0.016
   0.25000000  0.00000000  0.25000000       0.016
   0.50000000  0.00000000  0.25000000       0.016
  -0.25000000  0.00000000  0.25000000       0.016
   0.00000000  0.25000000  0.25000000       0.016
   0.25000000  0.25000000  0.25000000       0.016
   0.50000000  0.25000000  0.25000000       0.016
  -0.25000000  0.25000000  0.25000000       0.016
   0.00000000  0.50000000  0.25000000       0.016
   0.25000000  0.50000000  0.25000000       0.016
   0.50000000  0.50000000  0.25000000       0.016
  -0.25000000  0.50000000  0.25000000       0.016
   0.00000000 -0.25000000  0.25000000       0.016
   0.25000000 -0.25000000  0.25000000       0.016
   0.50000000 -0.25000000  0.25000000       0.016
  -0.25000000 -0.25000000  0.25000000       0.016
   0.00000000  0.00000000  0.50000000       0.016
   0.25000000  0.00000000  0.50000000       0.016
   0.50000000  0.00000000  0.50000000       0.016
  -0.25000000  0.00000000  0.50000000       0.016
   0.00000000  0.25000000  0.50000000       0.016
   0.25000000  0.25000000  0.50000000       0.016
   0.50000000  0.25000000  0.50000000       0.016
  -0.25000000  0.25000000  0.50000000       0.016
   0.00000000  0.50000000  0.50000000       0.016
   0.25000000  0.50000000  0.50000000       0.016
   0.50000000  0.50000000  0.50000000       0.016
  -0.25000000  0.50000000  0.50000000       0.016
   0.00000000 -0.25000000  0.50000000       0.016
   0.25000000 -0.25000000  0.50000000       0.016
   0.50000000 -0.25000000  0.50000000       0.016
  -0.25000000 -0.25000000  0.50000000       0.016
   0.00000000  0.00000000 -0.25000000       0.016
   0.25000000  0.00000000 -0.25000000       0.016
   0.50000000  0.00000000 -0.25000000       0.016
  -0.25000000  0.00000000 -0.25000000       0.016
   0.00000000  0.25000000 -0.25000000       0.016
   0.25000000  0.25000000 -0.25000000       0.016
   0.50000000  0.25000000 -0.25000000       0.016
  -0.25000000  0.25000000 -0.25000000       0.016
   0.00000000  0.50000000 -0.25000000       0.016
   0.25000000  0.50000000 -0.25000000       0.016
   0.50000000  0.50000000 -0.25000000       0.016
  -0.25000000  0.50000000 -0.25000000       0.016
   0.00000000 -0.25000000 -0.25000000       0.016
   0.25000000 -0.25000000 -0.25000000       0.016
   0.50000000 -0.25000000 -0.25000000       0.016
  -0.25000000 -0.25000000 -0.25000000       0.016
 
 position of ions in fractional coordinates (direct lattice) 
   0.15291641  0.15291641  0.15291641
   0.34708359  0.34708359  0.34708359
   0.65291641  0.65291641  0.65291641
   0.84708359  0.84708359  0.84708359
   0.55705137  0.94294863  0.25000000
   0.44294863  0.05705137  0.75000000
   0.25000000  0.55705137  0.94294863
   0.75000000  0.44294863  0.05705137
   0.94294863  0.25000000  0.55705137
   0.05705137  0.75000000  0.44294863
 
 position of ions in cartesian coordinates  (Angst):
   0.00000000  0.00000000  2.06363456
   0.00000000  0.00000000  4.68395559
   0.00000000  0.00000000  8.81122470
   0.00000000  0.00000000 11.43154573
  -0.11141806  1.69604795  7.87218850
   0.11141806 -1.69604795  5.62299179
  -1.41311158 -0.94451485  7.87218850
   1.41311158  0.94451485  5.62299179
   1.52452964 -0.75153311  7.87218850
  -1.52452964  0.75153311  5.62299179
 
 Euler angles ALPHA=     0.0000000  BETA=     0.0000000

 transformation matrix from SAXIS to cartesian coordinates
 ---------------------------------------------------------
     1.0000000 m_x     0.0000000 m_y     0.0000000 m_z
     0.0000000 m_x     1.0000000 m_y     0.0000000 m_z
     0.0000000 m_x     0.0000000 m_y     1.0000000 m_z

 transformation matrix from cartesian coordinates to SAXIS
 ---------------------------------------------------------
     1.0000000 m_x     0.0000000 m_y     0.0000000 m_z
     0.0000000 m_x     1.0000000 m_y     0.0000000 m_z
     0.0000000 m_x     0.0000000 m_y     1.0000000 m_z




--------------------------------------------------------------------------------------------------------


 k-point  1 :   0.0000 0.0000 0.0000  plane waves:    4726
 k-point  2 :   0.2500 0.0000 0.0000  plane waves:    4724
 k-point  3 :   0.5000 0.0000 0.0000  plane waves:    4748
 k-point  4 :  -0.2500 0.0000 0.0000  plane waves:    4724
 k-point  5 :   0.0000 0.2500 0.0000  plane waves:    4724
 k-point  6 :   0.2500 0.2500 0.0000  plane waves:    4740
 k-point  7 :   0.5000 0.2500 0.0000  plane waves:    4748
 k-point  8 :  -0.2500 0.2500 0.0000  plane waves:    4754
 k-point  9 :   0.0000 0.5000 0.0000  plane waves:    4748
 k-point 10 :   0.2500 0.5000 0.0000  plane waves:    4748
 k-point 11 :   0.5000 0.5000 0.0000  plane waves:    4744
 k-point 12 :  -0.2500 0.5000 0.0000  plane waves:    4748
 k-point 13 :   0.0000-0.2500 0.0000  plane waves:    4724
 k-point 14 :   0.2500-0.2500 0.0000  plane waves:    4754
 k-point 15 :   0.5000-0.2500 0.0000  plane waves:    4748
 k-point 16 :  -0.2500-0.2500 0.0000  plane waves:    4740
 k-point 17 :   0.0000 0.0000 0.2500  plane waves:    4724
 k-point 18 :   0.2500 0.0000 0.2500  plane waves:    4740
 k-point 19 :   0.5000 0.0000 0.2500  plane waves:    4748
 k-point 20 :  -0.2500 0.0000 0.2500  plane waves:    4754
 k-point 21 :   0.0000 0.2500 0.2500  plane waves:    4740
 k-point 22 :   0.2500 0.2500 0.2500  plane waves:    4736
 k-point 23 :   0.5000 0.2500 0.2500  plane waves:    4722
 k-point 24 :  -0.2500 0.2500 0.2500  plane waves:    4752
 k-point 25 :   0.0000 0.5000 0.2500  plane waves:    4748
 k-point 26 :   0.2500 0.5000 0.2500  plane waves:    4722
 k-point 27 :   0.5000 0.5000 0.2500  plane waves:    4732
 k-point 28 :  -0.2500 0.5000 0.2500  plane waves:    4760
 k-point 29 :   0.0000-0.2500 0.2500  plane waves:    4754
 k-point 30 :   0.2500-0.2500 0.2500  plane waves:    4752
 k-point 31 :   0.5000-0.2500 0.2500  plane waves:    4760
 k-point 32 :  -0.2500-0.2500 0.2500  plane waves:    4752
 k-point 33 :   0.0000 0.0000 0.5000  plane waves:    4748
 k-point 34 :   0.2500 0.0000 0.5000  plane waves:    4748
 k-point 35 :   0.5000 0.0000 0.5000  plane waves:    4744
 k-point 36 :  -0.2500 0.0000 0.5000  plane waves:    4748
 k-point 37 :   0.0000 0.2500 0.5000  plane waves:    4748
 k-point 38 :   0.2500 0.2500 0.5000  plane waves:    4722
 k-point 39 :   0.5000 0.2500 0.5000  plane waves:    4732
 k-point 40 :  -0.2500 0.2500 0.5000  plane waves:    4760
 k-point 41 :   0.0000 0.5000 0.5000  plane waves:    4744
 k-point 42 :   0.2500 0.5000 0.5000  plane waves:    4732
 k-point 43 :   0.5000 0.5000 0.5000  plane waves:    4760
 k-point 44 :  -0.2500 0.5000 0.5000  plane waves:    4732
 k-point 45 :   0.0000-0.2500 0.5000  plane waves:    4748
 k-point 46 :   0.2500-0.2500 0.5000  plane waves:    4760
 k-point 47 :   0.5000-0.2500 0.5000  plane waves:    4732
 k-point 48 :  -0.2500-0.2500 0.5000  plane waves:    4722
 k-point 49 :   0.0000 0.0000-0.2500  plane waves:    4724
 k-point 50 :   0.2500 0.0000-0.2500  plane waves:    4754
 k-point 51 :   0.5000 0.0000-0.2500  plane waves:    4748
 k-point 52 :  -0.2500 0.0000-0.2500  plane waves:    4740
 k-point 53 :   0.0000 0.2500-0.2500  plane waves:    4754
 k-point 54 :   0.2500 0.2500-0.2500  plane waves:    4752
 k-point 55 :   0.5000 0.2500-0.2500  plane waves:    4760
 k-point 56 :  -0.2500 0.2500-0.2500  plane waves:    4752
 k-point 57 :   0.0000 0.5000-0.2500  plane waves:    4748
 k-point 58 :   0.2500 0.5000-0.2500  plane waves:    4760
 k-point 59 :   0.5000 0.5000-0.2500  plane waves:    4732
 k-point 60 :  -0.2500 0.5000-0.2500  plane waves:    4722
 k-point 61 :   0.0000-0.2500-0.2500  plane waves:    4740
 k-point 62 :   0.2500-0.2500-0.2500  plane waves:    4752
 k-point 63 :   0.5000-0.2500-0.2500  plane waves:    4722
 k-point 64 :  -0.2500-0.2500-0.2500  plane waves:    4736

 maximum and minimum number of plane-waves per node :       576      492

 maximum number of plane-waves:      4760
 maximum index in each direction: 
   IXMAX=    9   IYMAX=    9   IZMAX=    9
   IXMIN=  -10   IYMIN=  -10   IZMIN=  -10

 NGX is ok and might be reduce to  40
 NGY is ok and might be reduce to  40
 NGZ is ok and might be reduce to  40

 parallel 3D FFT for wavefunctions:
    minimum data exchange during FFTs selected (reduces bandwidth)
 parallel 3D FFT for charge:
    minimum data exchange during FFTs selected (reduces bandwidth)


 total amount of memory used by VASP on root node    58297. kBytes
========================================================================

   base      :      30000. kBytes
   nonl-proj :       5335. kBytes
   fftplans  :       2631. kBytes
   grid      :       2990. kBytes
   one-center:        138. kBytes
   wavefun   :      17203. kBytes
 
     INWAV:  cpu time    0.00: real time    0.00
 Broyden mixing: mesh for mixing (old mesh)
   NGX = 19   NGY = 19   NGZ = 19
  (NGX  = 64   NGY  = 64   NGZ  = 64)
  gives a total of   6859 points

 initial charge density was supplied:
 charge density of overlapping atoms calculated
 number of electron      92.0000000 magnetization       0.0000000      0.0000000     -0.0000000
 keeping initial charge density in first step


--------------------------------------------------------------------------------------------------------


 Maximum index for augmentation-charges         2199 (set IRDMAX)


--------------------------------------------------------------------------------------------------------


 First call to EWALD:  gamma=   0.391
 Maximum number of real-space cells 3x 3x 3
 Maximum number of reciprocal cells 3x 3x 3

 FEWALD executed in parallel
    FEWALD:  cpu time    0.00: real time    0.00


----------------------------------------- Iteration    1(   1)  ---------------------------------------


    POTLOK:  cpu time    0.02: real time    0.02
    SETDIJ:  cpu time    0.93: real time    0.94
atom =   1  type =  1  l = 2
 
 onsite density matrix
 
spin component  1
 
  0.5311  0.0000  0.0000  0.0000  0.0000      0.0000  0.0000  0.0000  0.0000  0.0000
  0.0000  0.5311  0.0000  0.0000  0.0000      0.0000  0.0000  0.0000  0.0000  0.0000
  0.0000  0.0000  0.5311  0.0000  0.0000      0.0000  0.0000  0.0000  0.0000  0.0000
  0.0000  0.0000  0.0000  0.5311  0.0000      0.0000  0.0000  0.0000  0.0000  0.0000
  0.0000  0.0000  0.0000  0.0000  0.5311      0.0000  0.0000  0.0000  0.0000  0.0000
 
spin component  2
 
  0.0000  0.0000  0.0000  0.0000  0.0000      0.0000  0.0000  0.0000  0.0000  0.0000
  0.0000  0.0000  0.0000  0.0000  0.0000      0.0000  0.0000  0.0000  0.0000  0.0000
  0.0000  0.0000  0.0000  0.0000  0.0000      0.0000  0.0000  0.0000  0.0000  0.0000
  0.0000  0.0000  0.0000  0.0000  0.0000      0.0000  0.0000  0.0000  0.0000  0.0000
  0.0000  0.0000  0.0000  0.0000  0.0000      0.0000  0.0000  0.0000  0.0000  0.0000
 
spin component  3
 
  0.0000  0.0000  0.0000  0.0000  0.0000      0.0000  0.0000  0.0000  0.0000  0.0000
  0.0000  0.0000  0.0000  0.0000  0.0000      0.0000  0.0000  0.0000  0.0000  0.0000
  0.0000  0.0000  0.0000  0.0000  0.0000      0.0000  0.0000  0.0000  0.0000  0.0000
  0.0000  0.0000  0.0000  0.0000  0.0000      0.0000  0.0000  0.0000  0.0000  0.0000
  0.0000  0.0000  0.0000  0.0000  0.0000      0.0000  0.0000  0.0000  0.0000  0.0000
 
spin component  4
 
  0.2516  0.0000  0.0000  0.0000  0.0000      0.0000  0.0000  0.0000  0.0000  0.0000
  0.0000  0.2516  0.0000  0.0000  0.0000      0.0000  0.0000  0.0000  0.0000  0.0000
  0.0000  0.0000  0.2516  0.0000  0.0000      0.0000  0.0000  0.0000  0.0000  0.0000
  0.0000  0.0000  0.0000  0.2516  0.0000      0.0000  0.0000  0.0000  0.0000  0.0000
  0.0000  0.0000  0.0000  0.0000  0.2516      0.0000  0.0000  0.0000  0.0000  0.0000
 
spin    1
   1.43573   0.00000   0.00000   0.00000   0.00000   0.00000   0.00000   0.00000   0.00000   0.00000   0.00000   0.00000   0.00000   0.00000   0.00000   0.00000   0.00000   0.00000
   0.00000   1.33360   0.00000   0.00000   0.00000   0.00000   0.00000   0.00000   0.00000   0.00000   0.00000   0.00000   0.00000   0.00000   0.00000   0.00000   0.00000   0.00000
   0.00000   0.00000   1.33360   0.00000   0.00000   0.00000   0.00000   0.00000   0.00000   0.00000   0.00000   0.00000   0.00000   0.00000   0.00000   0.00000   0.00000   0.00000
   0.00000   0.00000   0.00000   1.33360   0.00000   0.00000   0.00000   0.00000   0.00000   0.00000   0.00000   0.00000   0.00000   0.00000   0.00000   0.00000   0.00000   0.00000
   0.00000   0.00000   0.00000   0.00000   0.53109   0.00000   0.00000   0.00000   0.00000   0.00000   0.00000   0.00000   0.00000   0.00000   0.00000   0.00000   0.00000   0.00000
   0.00000   0.00000   0.00000   0.00000   0.00000   0.53109   0.00000   0.00000   0.00000   0.00000   0.00000   0.00000   0.00000   0.00000   0.00000   0.00000   0.00000   0.00000
   0.00000   0.00000   0.00000   0.00000   0.00000   0.00000   0.53109   0.00000   0.00000   0.00000   0.00000   0.00000   0.00000   0.00000   0.00000   0.00000   0.00000   0.00000
   0.00000   0.00000   0.00000   0.00000   0.00000   0.00000   0.00000   0.53109   0.00000   0.00000   0.00000   0.00000   0.00000   0.00000   0.00000   0.00000   0.00000   0.00000
   0.00000   0.00000   0.00000   0.00000   0.00000   0.00000   0.00000   0.00000   0.53109   0.00000   0.00000   0.00000   0.00000   0.00000   0.00000   0.00000   0.00000   0.00000
spin    2
   0.00000   0.00000   0.00000   0.00000   0.00000   0.00000   0.00000   0.00000   0.00000   0.00000   0.00000   0.00000   0.00000   0.00000   0.00000   0.00000   0.00000   0.00000
   0.00000   0.00000   0.00000   0.00000   0.00000   0.00000   0.00000   0.00000   0.00000   0.00000   0.00000   0.00000   0.00000   0.00000   0.00000   0.00000   0.00000   0.00000
   0.00000   0.00000   0.00000   0.00000   0.00000   0.00000   0.00000   0.00000   0.00000   0.00000   0.00000   0.00000   0.00000   0.00000   0.00000   0.00000   0.00000   0.00000
   0.00000   0.00000   0.00000   0.00000   0.00000   0.00000   0.00000   0.00000   0.00000   0.00000   0.00000   0.00000   0.00000   0.00000   0.00000   0.00000   0.00000   0.00000
   0.00000   0.00000   0.00000   0.00000   0.00000   0.00000   0.00000   0.00000   0.00000   0.00000   0.00000   0.00000   0.00000   0.00000   0.00000   0.00000   0.00000   0.00000
   0.00000   0.00000   0.00000   0.00000   0.00000   0.00000   0.00000   0.00000   0.00000   0.00000   0.00000   0.00000   0.00000   0.00000   0.00000   0.00000   0.00000   0.00000
   0.00000   0.00000   0.00000   0.00000   0.00000   0.00000   0.00000   0.00000   0.00000   0.00000   0.00000   0.00000   0.00000   0.00000   0.00000   0.00000   0.00000   0.00000
   0.00000   0.00000   0.00000   0.00000   0.00000   0.00000   0.00000   0.00000   0.00000   0.00000   0.00000   0.00000   0.00000   0.00000   0.00000   0.00000   0.00000   0.00000
   0.00000   0.00000   0.00000   0.00000   0.00000   0.00000   0.00000   0.00000   0.00000   0.00000   0.00000   0.00000   0.00000   0.00000   0.00000   0.00000   0.00000   0.00000
spin    3
   0.00000   0.00000   0.00000   0.00000   0.00000   0.00000   0.00000   0.00000   0.00000   0.00000   0.00000   0.00000   0.00000   0.00000   0.00000   0.00000   0.00000   0.00000
   0.00000   0.00000   0.00000   0.00000   0.00000   0.00000   0.00000   0.00000   0.00000   0.00000   0.00000   0.00000   0.00000   0.00000   0.00000   0.00000   0.00000   0.00000
   0.00000   0.00000   0.00000   0.00000   0.00000   0.00000   0.00000   0.00000   0.00000   0.00000   0.00000   0.00000   0.00000   0.00000   0.00000   0.00000   0.00000   0.00000
   0.00000   0.00000   0.00000   0.00000   0.00000   0.00000   0.00000   0.00000   0.00000   0.00000   0.00000   0.00000   0.00000   0.00000   0.00000   0.00000   0.00000   0.00000
   0.00000   0.00000   0.00000   0.00000   0.00000   0.00000   0.00000   0.00000   0.00000   0.00000   0.00000   0.00000   0.00000   0.00000   0.00000   0.00000   0.00000   0.00000
   0.00000   0.00000   0.00000   0.00000   0.00000   0.00000   0.00000   0.00000   0.00000   0.00000   0.00000   0.00000   0.00000   0.00000   0.00000   0.00000   0.00000   0.00000
   0.00000   0.00000   0.00000   0.00000   0.00000   0.00000   0.00000   0.00000   0.00000   0.00000   0.00000   0.00000   0.00000   0.00000   0.00000   0.00000   0.00000   0.00000
   0.00000   0.00000   0.00000   0.00000   0.00000   0.00000   0.00000   0.00000   0.00000   0.00000   0.00000   0.00000   0.00000   0.00000   0.00000   0.00000   0.00000   0.00000
   0.00000   0.00000   0.00000   0.00000   0.00000   0.00000   0.00000   0.00000   0.00000   0.00000   0.00000   0.00000   0.00000   0.00000   0.00000   0.00000   0.00000   0.00000
spin    4
   0.68008   0.00000   0.00000   0.00000   0.00000   0.00000   0.00000   0.00000   0.00000   0.00000   0.00000   0.00000   0.00000   0.00000   0.00000   0.00000   0.00000   0.00000
   0.00000   0.63171   0.00000   0.00000   0.00000   0.00000   0.00000   0.00000   0.00000   0.00000   0.00000   0.00000   0.00000   0.00000   0.00000   0.00000   0.00000   0.00000
   0.00000   0.00000   0.63171   0.00000   0.00000   0.00000   0.00000   0.00000   0.00000   0.00000   0.00000   0.00000   0.00000   0.00000   0.00000   0.00000   0.00000   0.00000
   0.00000   0.00000   0.00000   0.63171   0.00000   0.00000   0.00000   0.00000   0.00000   0.00000   0.00000   0.00000   0.00000   0.00000   0.00000   0.00000   0.00000   0.00000
   0.00000   0.00000   0.00000   0.00000   0.25157   0.00000   0.00000   0.00000   0.00000   0.00000   0.00000   0.00000   0.00000   0.00000   0.00000   0.00000   0.00000   0.00000
   0.00000   0.00000   0.00000   0.00000   0.00000   0.25157   0.00000   0.00000   0.00000   0.00000   0.00000   0.00000   0.00000   0.00000   0.00000   0.00000   0.00000   0.00000
   0.00000   0.00000   0.00000   0.00000   0.00000   0.00000   0.25157   0.00000   0.00000   0.00000   0.00000   0.00000   0.00000   0.00000   0.00000   0.00000   0.00000   0.00000
   0.00000   0.00000   0.00000   0.00000   0.00000   0.00000   0.00000   0.25157   0.00000   0.00000   0.00000   0.00000   0.00000   0.00000   0.00000   0.00000   0.00000   0.00000
   0.00000   0.00000   0.00000   0.00000   0.00000   0.00000   0.00000   0.00000   0.25157   0.00000   0.00000   0.00000   0.00000   0.00000   0.00000   0.00000   0.00000   0.00000
 occupancies and eigenvectors
 
  o =  0.2516  v =  0.0000  0.0000  0.0000  0.0000  0.0000  1.0000  0.0000  0.0000  0.0000  0.0000      0.0000  0.0000  0.0000  0.0000  0.0000  0.0000  0.0000  0.0000  0.0000  0.0000
  o =  0.2516  v =  0.0000  0.0000  0.0000  0.0000  0.0000  0.0000  1.0000  0.0000  0.0000  0.0000      0.0000  0.0000  0.0000  0.0000  0.0000  0.0000  0.0000  0.0000  0.0000  0.0000
  o =  0.2516  v =  0.0000  0.0000  0.0000  0.0000  0.0000  0.0000  0.0000  1.0000  0.0000  0.0000      0.0000  0.0000  0.0000  0.0000  0.0000  0.0000  0.0000  0.0000  0.0000  0.0000
  o =  0.2516  v =  0.0000  0.0000  0.0000  0.0000  0.0000  0.0000  0.0000  0.0000  1.0000  0.0000      0.0000  0.0000  0.0000  0.0000  0.0000  0.0000  0.0000  0.0000  0.0000  0.0000
  o =  0.2516  v =  0.0000  0.0000  0.0000  0.0000  0.0000  0.0000  0.0000  0.0000  0.0000  1.0000      0.0000  0.0000  0.0000  0.0000  0.0000  0.0000  0.0000  0.0000  0.0000  0.0000
  o =  0.5311  v =  1.0000  0.0000  0.0000  0.0000  0.0000  0.0000  0.0000  0.0000  0.0000  0.0000      0.0000  0.0000  0.0000  0.0000  0.0000  0.0000  0.0000  0.0000  0.0000  0.0000
  o =  0.5311  v =  0.0000  1.0000  0.0000  0.0000  0.0000  0.0000  0.0000  0.0000  0.0000  0.0000      0.0000  0.0000  0.0000  0.0000  0.0000  0.0000  0.0000  0.0000  0.0000  0.0000
  o =  0.5311  v =  0.0000  0.0000  1.0000  0.0000  0.0000  0.0000  0.0000  0.0000  0.0000  0.0000      0.0000  0.0000  0.0000  0.0000  0.0000  0.0000  0.0000  0.0000  0.0000  0.0000
  o =  0.5311  v =  0.0000  0.0000  0.0000  1.0000  0.0000  0.0000  0.0000  0.0000  0.0000  0.0000      0.0000  0.0000  0.0000  0.0000  0.0000  0.0000  0.0000  0.0000  0.0000  0.0000
  o =  0.5311  v =  0.0000  0.0000  0.0000  0.0000  1.0000  0.0000  0.0000  0.0000  0.0000  0.0000      0.0000  0.0000  0.0000  0.0000  0.0000  0.0000  0.0000  0.0000  0.0000  0.0000
atom =   2  type =  1  l = 2
 
 onsite density matrix
 
spin component  1
 
  0.2516  0.0000  0.0000  0.0000  0.0000      0.0000  0.0000  0.0000  0.0000  0.0000
  0.0000  0.2516  0.0000  0.0000  0.0000      0.0000  0.0000  0.0000  0.0000  0.0000
  0.0000  0.0000  0.2516  0.0000  0.0000      0.0000  0.0000  0.0000  0.0000  0.0000
  0.0000  0.0000  0.0000  0.2516  0.0000      0.0000  0.0000  0.0000  0.0000  0.0000
  0.0000  0.0000  0.0000  0.0000  0.2516      0.0000  0.0000  0.0000  0.0000  0.0000
 
spin component  2
 
  0.0000  0.0000  0.0000  0.0000  0.0000      0.0000  0.0000  0.0000  0.0000  0.0000
  0.0000  0.0000  0.0000  0.0000  0.0000      0.0000  0.0000  0.0000  0.0000  0.0000
  0.0000  0.0000  0.0000  0.0000  0.0000      0.0000  0.0000  0.0000  0.0000  0.0000
  0.0000  0.0000  0.0000  0.0000  0.0000      0.0000  0.0000  0.0000  0.0000  0.0000
  0.0000  0.0000  0.0000  0.0000  0.0000      0.0000  0.0000  0.0000  0.0000  0.0000
 
spin component  3
 
  0.0000  0.0000  0.0000  0.0000  0.0000      0.0000  0.0000  0.0000  0.0000  0.0000
  0.0000  0.0000  0.0000  0.0000  0.0000      0.0000  0.0000  0.0000  0.0000  0.0000
  0.0000  0.0000  0.0000  0.0000  0.0000      0.0000  0.0000  0.0000  0.0000  0.0000
  0.0000  0.0000  0.0000  0.0000  0.0000      0.0000  0.0000  0.0000  0.0000  0.0000
  0.0000  0.0000  0.0000  0.0000  0.0000      0.0000  0.0000  0.0000  0.0000  0.0000
 
spin component  4
 
  0.5311  0.0000  0.0000  0.0000  0.0000      0.0000  0.0000  0.0000  0.0000  0.0000
  0.0000  0.5311  0.0000  0.0000  0.0000      0.0000  0.0000  0.0000  0.0000  0.0000
  0.0000  0.0000  0.5311  0.0000  0.0000      0.0000  0.0000  0.0000  0.0000  0.0000
  0.0000  0.0000  0.0000  0.5311  0.0000      0.0000  0.0000  0.0000  0.0000  0.0000
  0.0000  0.0000  0.0000  0.0000  0.5311      0.0000  0.0000  0.0000  0.0000  0.0000
 
spin    1
   0.68008   0.00000   0.00000   0.00000   0.00000   0.00000   0.00000   0.00000   0.00000   0.00000   0.00000   0.00000   0.00000   0.00000   0.00000   0.00000   0.00000   0.00000
   0.00000   0.63171   0.00000   0.00000   0.00000   0.00000   0.00000   0.00000   0.00000   0.00000   0.00000   0.00000   0.00000   0.00000   0.00000   0.00000   0.00000   0.00000
   0.00000   0.00000   0.63171   0.00000   0.00000   0.00000   0.00000   0.00000   0.00000   0.00000   0.00000   0.00000   0.00000   0.00000   0.00000   0.00000   0.00000   0.00000
   0.00000   0.00000   0.00000   0.63171   0.00000   0.00000   0.00000   0.00000   0.00000   0.00000   0.00000   0.00000   0.00000   0.00000   0.00000   0.00000   0.00000   0.00000
   0.00000   0.00000   0.00000   0.00000   0.25157   0.00000   0.00000   0.00000   0.00000   0.00000   0.00000   0.00000   0.00000   0.00000   0.00000   0.00000   0.00000   0.00000
   0.00000   0.00000   0.00000   0.00000   0.00000   0.25157   0.00000   0.00000   0.00000   0.00000   0.00000   0.00000   0.00000   0.00000   0.00000   0.00000   0.00000   0.00000
   0.00000   0.00000   0.00000   0.00000   0.00000   0.00000   0.25157   0.00000   0.00000   0.00000   0.00000   0.00000   0.00000   0.00000   0.00000   0.00000   0.00000   0.00000
   0.00000   0.00000   0.00000   0.00000   0.00000   0.00000   0.00000   0.25157   0.00000   0.00000   0.00000   0.00000   0.00000   0.00000   0.00000   0.00000   0.00000   0.00000
   0.00000   0.00000   0.00000   0.00000   0.00000   0.00000   0.00000   0.00000   0.25157   0.00000   0.00000   0.00000   0.00000   0.00000   0.00000   0.00000   0.00000   0.00000
spin    2
   0.00000   0.00000   0.00000   0.00000   0.00000   0.00000   0.00000   0.00000   0.00000   0.00000   0.00000   0.00000   0.00000   0.00000   0.00000   0.00000   0.00000   0.00000
   0.00000   0.00000   0.00000   0.00000   0.00000   0.00000   0.00000   0.00000   0.00000   0.00000   0.00000   0.00000   0.00000   0.00000   0.00000   0.00000   0.00000   0.00000
   0.00000   0.00000   0.00000   0.00000   0.00000   0.00000   0.00000   0.00000   0.00000   0.00000   0.00000   0.00000   0.00000   0.00000   0.00000   0.00000   0.00000   0.00000
   0.00000   0.00000   0.00000   0.00000   0.00000   0.00000   0.00000   0.00000   0.00000   0.00000   0.00000   0.00000   0.00000   0.00000   0.00000   0.00000   0.00000   0.00000
   0.00000   0.00000   0.00000   0.00000   0.00000   0.00000   0.00000   0.00000   0.00000   0.00000   0.00000   0.00000   0.00000   0.00000   0.00000   0.00000   0.00000   0.00000
   0.00000   0.00000   0.00000   0.00000   0.00000   0.00000   0.00000   0.00000   0.00000   0.00000   0.00000   0.00000   0.00000   0.00000   0.00000   0.00000   0.00000   0.00000
   0.00000   0.00000   0.00000   0.00000   0.00000   0.00000   0.00000   0.00000   0.00000   0.00000   0.00000   0.00000   0.00000   0.00000   0.00000   0.00000   0.00000   0.00000
   0.00000   0.00000   0.00000   0.00000   0.00000   0.00000   0.00000   0.00000   0.00000   0.00000   0.00000   0.00000   0.00000   0.00000   0.00000   0.00000   0.00000   0.00000
   0.00000   0.00000   0.00000   0.00000   0.00000   0.00000   0.00000   0.00000   0.00000   0.00000   0.00000   0.00000   0.00000   0.00000   0.00000   0.00000   0.00000   0.00000
spin    3
   0.00000   0.00000   0.00000   0.00000   0.00000   0.00000   0.00000   0.00000   0.00000   0.00000   0.00000   0.00000   0.00000   0.00000   0.00000   0.00000   0.00000   0.00000
   0.00000   0.00000   0.00000   0.00000   0.00000   0.00000   0.00000   0.00000   0.00000   0.00000   0.00000   0.00000   0.00000   0.00000   0.00000   0.00000   0.00000   0.00000
   0.00000   0.00000   0.00000   0.00000   0.00000   0.00000   0.00000   0.00000   0.00000   0.00000   0.00000   0.00000   0.00000   0.00000   0.00000   0.00000   0.00000   0.00000
   0.00000   0.00000   0.00000   0.00000   0.00000   0.00000   0.00000   0.00000   0.00000   0.00000   0.00000   0.00000   0.00000   0.00000   0.00000   0.00000   0.00000   0.00000
   0.00000   0.00000   0.00000   0.00000   0.00000   0.00000   0.00000   0.00000   0.00000   0.00000   0.00000   0.00000   0.00000   0.00000   0.00000   0.00000   0.00000   0.00000
   0.00000   0.00000   0.00000   0.00000   0.00000   0.00000   0.00000   0.00000   0.00000   0.00000   0.00000   0.00000   0.00000   0.00000   0.00000   0.00000   0.00000   0.00000
   0.00000   0.00000   0.00000   0.00000   0.00000   0.00000   0.00000   0.00000   0.00000   0.00000   0.00000   0.00000   0.00000   0.00000   0.00000   0.00000   0.00000   0.00000
   0.00000   0.00000   0.00000   0.00000   0.00000   0.00000   0.00000   0.00000   0.00000   0.00000   0.00000   0.00000   0.00000   0.00000   0.00000   0.00000   0.00000   0.00000
   0.00000   0.00000   0.00000   0.00000   0.00000   0.00000   0.00000   0.00000   0.00000   0.00000   0.00000   0.00000   0.00000   0.00000   0.00000   0.00000   0.00000   0.00000
spin    4
   1.43573   0.00000   0.00000   0.00000   0.00000   0.00000   0.00000   0.00000   0.00000   0.00000   0.00000   0.00000   0.00000   0.00000   0.00000   0.00000   0.00000   0.00000
   0.00000   1.33360   0.00000   0.00000   0.00000   0.00000   0.00000   0.00000   0.00000   0.00000   0.00000   0.00000   0.00000   0.00000   0.00000   0.00000   0.00000   0.00000
   0.00000   0.00000   1.33360   0.00000   0.00000   0.00000   0.00000   0.00000   0.00000   0.00000   0.00000   0.00000   0.00000   0.00000   0.00000   0.00000   0.00000   0.00000
   0.00000   0.00000   0.00000   1.33360   0.00000   0.00000   0.00000   0.00000   0.00000   0.00000   0.00000   0.00000   0.00000   0.00000   0.00000   0.00000   0.00000   0.00000
   0.00000   0.00000   0.00000   0.00000   0.53109   0.00000   0.00000   0.00000   0.00000   0.00000   0.00000   0.00000   0.00000   0.00000   0.00000   0.00000   0.00000   0.00000
   0.00000   0.00000   0.00000   0.00000   0.00000   0.53109   0.00000   0.00000   0.00000   0.00000   0.00000   0.00000   0.00000   0.00000   0.00000   0.00000   0.00000   0.00000
   0.00000   0.00000   0.00000   0.00000   0.00000   0.00000   0.53109   0.00000   0.00000   0.00000   0.00000   0.00000   0.00000   0.00000   0.00000   0.00000   0.00000   0.00000
   0.00000   0.00000   0.00000   0.00000   0.00000   0.00000   0.00000   0.53109   0.00000   0.00000   0.00000   0.00000   0.00000   0.00000   0.00000   0.00000   0.00000   0.00000
   0.00000   0.00000   0.00000   0.00000   0.00000   0.00000   0.00000   0.00000   0.53109   0.00000   0.00000   0.00000   0.00000   0.00000   0.00000   0.00000   0.00000   0.00000
 occupancies and eigenvectors
 
  o =  0.2516  v =  1.0000  0.0000  0.0000  0.0000  0.0000  0.0000  0.0000  0.0000  0.0000  0.0000      0.0000  0.0000  0.0000  0.0000  0.0000  0.0000  0.0000  0.0000  0.0000  0.0000
  o =  0.2516  v =  0.0000  1.0000  0.0000  0.0000  0.0000  0.0000  0.0000  0.0000  0.0000  0.0000      0.0000  0.0000  0.0000  0.0000  0.0000  0.0000  0.0000  0.0000  0.0000  0.0000
  o =  0.2516  v =  0.0000  0.0000  1.0000  0.0000  0.0000  0.0000  0.0000  0.0000  0.0000  0.0000      0.0000  0.0000  0.0000  0.0000  0.0000  0.0000  0.0000  0.0000  0.0000  0.0000
  o =  0.2516  v =  0.0000  0.0000  0.0000  1.0000  0.0000  0.0000  0.0000  0.0000  0.0000  0.0000      0.0000  0.0000  0.0000  0.0000  0.0000  0.0000  0.0000  0.0000  0.0000  0.0000
  o =  0.2516  v =  0.0000  0.0000  0.0000  0.0000  1.0000  0.0000  0.0000  0.0000  0.0000  0.0000      0.0000  0.0000  0.0000  0.0000  0.0000  0.0000  0.0000  0.0000  0.0000  0.0000
  o =  0.5311  v =  0.0000  0.0000  0.0000  0.0000  0.0000  1.0000  0.0000  0.0000  0.0000  0.0000      0.0000  0.0000  0.0000  0.0000  0.0000  0.0000  0.0000  0.0000  0.0000  0.0000
  o =  0.5311  v =  0.0000  0.0000  0.0000  0.0000  0.0000  0.0000  1.0000  0.0000  0.0000  0.0000      0.0000  0.0000  0.0000  0.0000  0.0000  0.0000  0.0000  0.0000  0.0000  0.0000
  o =  0.5311  v =  0.0000  0.0000  0.0000  0.0000  0.0000  0.0000  0.0000  1.0000  0.0000  0.0000      0.0000  0.0000  0.0000  0.0000  0.0000  0.0000  0.0000  0.0000  0.0000  0.0000
  o =  0.5311  v =  0.0000  0.0000  0.0000  0.0000  0.0000  0.0000  0.0000  0.0000  1.0000  0.0000      0.0000  0.0000  0.0000  0.0000  0.0000  0.0000  0.0000  0.0000  0.0000  0.0000
  o =  0.5311  v =  0.0000  0.0000  0.0000  0.0000  0.0000  0.0000  0.0000  0.0000  0.0000  1.0000      0.0000  0.0000  0.0000  0.0000  0.0000  0.0000  0.0000  0.0000  0.0000  0.0000
atom =   3  type =  1  l = 2
 
 onsite density matrix
 
spin component  1
 
  0.5311  0.0000  0.0000  0.0000  0.0000      0.0000  0.0000  0.0000  0.0000  0.0000
  0.0000  0.5311  0.0000  0.0000  0.0000      0.0000  0.0000  0.0000  0.0000  0.0000
  0.0000  0.0000  0.5311  0.0000  0.0000      0.0000  0.0000  0.0000  0.0000  0.0000
  0.0000  0.0000  0.0000  0.5311  0.0000      0.0000  0.0000  0.0000  0.0000  0.0000
  0.0000  0.0000  0.0000  0.0000  0.5311      0.0000  0.0000  0.0000  0.0000  0.0000
 
spin component  2
 
  0.0000  0.0000  0.0000  0.0000  0.0000      0.0000  0.0000  0.0000  0.0000  0.0000
  0.0000  0.0000  0.0000  0.0000  0.0000      0.0000  0.0000  0.0000  0.0000  0.0000
  0.0000  0.0000  0.0000  0.0000  0.0000      0.0000  0.0000  0.0000  0.0000  0.0000
  0.0000  0.0000  0.0000  0.0000  0.0000      0.0000  0.0000  0.0000  0.0000  0.0000
  0.0000  0.0000  0.0000  0.0000  0.0000      0.0000  0.0000  0.0000  0.0000  0.0000
 
spin component  3
 
  0.0000  0.0000  0.0000  0.0000  0.0000      0.0000  0.0000  0.0000  0.0000  0.0000
  0.0000  0.0000  0.0000  0.0000  0.0000      0.0000  0.0000  0.0000  0.0000  0.0000
  0.0000  0.0000  0.0000  0.0000  0.0000      0.0000  0.0000  0.0000  0.0000  0.0000
  0.0000  0.0000  0.0000  0.0000  0.0000      0.0000  0.0000  0.0000  0.0000  0.0000
  0.0000  0.0000  0.0000  0.0000  0.0000      0.0000  0.0000  0.0000  0.0000  0.0000
 
spin component  4
 
  0.2516  0.0000  0.0000  0.0000  0.0000      0.0000  0.0000  0.0000  0.0000  0.0000
  0.0000  0.2516  0.0000  0.0000  0.0000      0.0000  0.0000  0.0000  0.0000  0.0000
  0.0000  0.0000  0.2516  0.0000  0.0000      0.0000  0.0000  0.0000  0.0000  0.0000
  0.0000  0.0000  0.0000  0.2516  0.0000      0.0000  0.0000  0.0000  0.0000  0.0000
  0.0000  0.0000  0.0000  0.0000  0.2516      0.0000  0.0000  0.0000  0.0000  0.0000
 
spin    1
   1.43573   0.00000   0.00000   0.00000   0.00000   0.00000   0.00000   0.00000   0.00000   0.00000   0.00000   0.00000   0.00000   0.00000   0.00000   0.00000   0.00000   0.00000
   0.00000   1.33360   0.00000   0.00000   0.00000   0.00000   0.00000   0.00000   0.00000   0.00000   0.00000   0.00000   0.00000   0.00000   0.00000   0.00000   0.00000   0.00000
   0.00000   0.00000   1.33360   0.00000   0.00000   0.00000   0.00000   0.00000   0.00000   0.00000   0.00000   0.00000   0.00000   0.00000   0.00000   0.00000   0.00000   0.00000
   0.00000   0.00000   0.00000   1.33360   0.00000   0.00000   0.00000   0.00000   0.00000   0.00000   0.00000   0.00000   0.00000   0.00000   0.00000   0.00000   0.00000   0.00000
   0.00000   0.00000   0.00000   0.00000   0.53109   0.00000   0.00000   0.00000   0.00000   0.00000   0.00000   0.00000   0.00000   0.00000   0.00000   0.00000   0.00000   0.00000
   0.00000   0.00000   0.00000   0.00000   0.00000   0.53109   0.00000   0.00000   0.00000   0.00000   0.00000   0.00000   0.00000   0.00000   0.00000   0.00000   0.00000   0.00000
   0.00000   0.00000   0.00000   0.00000   0.00000   0.00000   0.53109   0.00000   0.00000   0.00000   0.00000   0.00000   0.00000   0.00000   0.00000   0.00000   0.00000   0.00000
   0.00000   0.00000   0.00000   0.00000   0.00000   0.00000   0.00000   0.53109   0.00000   0.00000   0.00000   0.00000   0.00000   0.00000   0.00000   0.00000   0.00000   0.00000
   0.00000   0.00000   0.00000   0.00000   0.00000   0.00000   0.00000   0.00000   0.53109   0.00000   0.00000   0.00000   0.00000   0.00000   0.00000   0.00000   0.00000   0.00000
spin    2
   0.00000   0.00000   0.00000   0.00000   0.00000   0.00000   0.00000   0.00000   0.00000   0.00000   0.00000   0.00000   0.00000   0.00000   0.00000   0.00000   0.00000   0.00000
   0.00000   0.00000   0.00000   0.00000   0.00000   0.00000   0.00000   0.00000   0.00000   0.00000   0.00000   0.00000   0.00000   0.00000   0.00000   0.00000   0.00000   0.00000
   0.00000   0.00000   0.00000   0.00000   0.00000   0.00000   0.00000   0.00000   0.00000   0.00000   0.00000   0.00000   0.00000   0.00000   0.00000   0.00000   0.00000   0.00000
   0.00000   0.00000   0.00000   0.00000   0.00000   0.00000   0.00000   0.00000   0.00000   0.00000   0.00000   0.00000   0.00000   0.00000   0.00000   0.00000   0.00000   0.00000
   0.00000   0.00000   0.00000   0.00000   0.00000   0.00000   0.00000   0.00000   0.00000   0.00000   0.00000   0.00000   0.00000   0.00000   0.00000   0.00000   0.00000   0.00000
   0.00000   0.00000   0.00000   0.00000   0.00000   0.00000   0.00000   0.00000   0.00000   0.00000   0.00000   0.00000   0.00000   0.00000   0.00000   0.00000   0.00000   0.00000
   0.00000   0.00000   0.00000   0.00000   0.00000   0.00000   0.00000   0.00000   0.00000   0.00000   0.00000   0.00000   0.00000   0.00000   0.00000   0.00000   0.00000   0.00000
   0.00000   0.00000   0.00000   0.00000   0.00000   0.00000   0.00000   0.00000   0.00000   0.00000   0.00000   0.00000   0.00000   0.00000   0.00000   0.00000   0.00000   0.00000
   0.00000   0.00000   0.00000   0.00000   0.00000   0.00000   0.00000   0.00000   0.00000   0.00000   0.00000   0.00000   0.00000   0.00000   0.00000   0.00000   0.00000   0.00000
spin    3
   0.00000   0.00000   0.00000   0.00000   0.00000   0.00000   0.00000   0.00000   0.00000   0.00000   0.00000   0.00000   0.00000   0.00000   0.00000   0.00000   0.00000   0.00000
   0.00000   0.00000   0.00000   0.00000   0.00000   0.00000   0.00000   0.00000   0.00000   0.00000   0.00000   0.00000   0.00000   0.00000   0.00000   0.00000   0.00000   0.00000
   0.00000   0.00000   0.00000   0.00000   0.00000   0.00000   0.00000   0.00000   0.00000   0.00000   0.00000   0.00000   0.00000   0.00000   0.00000   0.00000   0.00000   0.00000
   0.00000   0.00000   0.00000   0.00000   0.00000   0.00000   0.00000   0.00000   0.00000   0.00000   0.00000   0.00000   0.00000   0.00000   0.00000   0.00000   0.00000   0.00000
   0.00000   0.00000   0.00000   0.00000   0.00000   0.00000   0.00000   0.00000   0.00000   0.00000   0.00000   0.00000   0.00000   0.00000   0.00000   0.00000   0.00000   0.00000
   0.00000   0.00000   0.00000   0.00000   0.00000   0.00000   0.00000   0.00000   0.00000   0.00000   0.00000   0.00000   0.00000   0.00000   0.00000   0.00000   0.00000   0.00000
   0.00000   0.00000   0.00000   0.00000   0.00000   0.00000   0.00000   0.00000   0.00000   0.00000   0.00000   0.00000   0.00000   0.00000   0.00000   0.00000   0.00000   0.00000
   0.00000   0.00000   0.00000   0.00000   0.00000   0.00000   0.00000   0.00000   0.00000   0.00000   0.00000   0.00000   0.00000   0.00000   0.00000   0.00000   0.00000   0.00000
   0.00000   0.00000   0.00000   0.00000   0.00000   0.00000   0.00000   0.00000   0.00000   0.00000   0.00000   0.00000   0.00000   0.00000   0.00000   0.00000   0.00000   0.00000
spin    4
   0.68008   0.00000   0.00000   0.00000   0.00000   0.00000   0.00000   0.00000   0.00000   0.00000   0.00000   0.00000   0.00000   0.00000   0.00000   0.00000   0.00000   0.00000
   0.00000   0.63171   0.00000   0.00000   0.00000   0.00000   0.00000   0.00000   0.00000   0.00000   0.00000   0.00000   0.00000   0.00000   0.00000   0.00000   0.00000   0.00000
   0.00000   0.00000   0.63171   0.00000   0.00000   0.00000   0.00000   0.00000   0.00000   0.00000   0.00000   0.00000   0.00000   0.00000   0.00000   0.00000   0.00000   0.00000
   0.00000   0.00000   0.00000   0.63171   0.00000   0.00000   0.00000   0.00000   0.00000   0.00000   0.00000   0.00000   0.00000   0.00000   0.00000   0.00000   0.00000   0.00000
   0.00000   0.00000   0.00000   0.00000   0.25157   0.00000   0.00000   0.00000   0.00000   0.00000   0.00000   0.00000   0.00000   0.00000   0.00000   0.00000   0.00000   0.00000
   0.00000   0.00000   0.00000   0.00000   0.00000   0.25157   0.00000   0.00000   0.00000   0.00000   0.00000   0.00000   0.00000   0.00000   0.00000   0.00000   0.00000   0.00000
   0.00000   0.00000   0.00000   0.00000   0.00000   0.00000   0.25157   0.00000   0.00000   0.00000   0.00000   0.00000   0.00000   0.00000   0.00000   0.00000   0.00000   0.00000
   0.00000   0.00000   0.00000   0.00000   0.00000   0.00000   0.00000   0.25157   0.00000   0.00000   0.00000   0.00000   0.00000   0.00000   0.00000   0.00000   0.00000   0.00000
   0.00000   0.00000   0.00000   0.00000   0.00000   0.00000   0.00000   0.00000   0.25157   0.00000   0.00000   0.00000   0.00000   0.00000   0.00000   0.00000   0.00000   0.00000
 occupancies and eigenvectors
 
  o =  0.2516  v =  0.0000  0.0000  0.0000  0.0000  0.0000  1.0000  0.0000  0.0000  0.0000  0.0000      0.0000  0.0000  0.0000  0.0000  0.0000  0.0000  0.0000  0.0000  0.0000  0.0000
  o =  0.2516  v =  0.0000  0.0000  0.0000  0.0000  0.0000  0.0000  1.0000  0.0000  0.0000  0.0000      0.0000  0.0000  0.0000  0.0000  0.0000  0.0000  0.0000  0.0000  0.0000  0.0000
  o =  0.2516  v =  0.0000  0.0000  0.0000  0.0000  0.0000  0.0000  0.0000  1.0000  0.0000  0.0000      0.0000  0.0000  0.0000  0.0000  0.0000  0.0000  0.0000  0.0000  0.0000  0.0000
  o =  0.2516  v =  0.0000  0.0000  0.0000  0.0000  0.0000  0.0000  0.0000  0.0000  1.0000  0.0000      0.0000  0.0000  0.0000  0.0000  0.0000  0.0000  0.0000  0.0000  0.0000  0.0000
  o =  0.2516  v =  0.0000  0.0000  0.0000  0.0000  0.0000  0.0000  0.0000  0.0000  0.0000  1.0000      0.0000  0.0000  0.0000  0.0000  0.0000  0.0000  0.0000  0.0000  0.0000  0.0000
  o =  0.5311  v =  1.0000  0.0000  0.0000  0.0000  0.0000  0.0000  0.0000  0.0000  0.0000  0.0000      0.0000  0.0000  0.0000  0.0000  0.0000  0.0000  0.0000  0.0000  0.0000  0.0000
  o =  0.5311  v =  0.0000  1.0000  0.0000  0.0000  0.0000  0.0000  0.0000  0.0000  0.0000  0.0000      0.0000  0.0000  0.0000  0.0000  0.0000  0.0000  0.0000  0.0000  0.0000  0.0000
  o =  0.5311  v =  0.0000  0.0000  1.0000  0.0000  0.0000  0.0000  0.0000  0.0000  0.0000  0.0000      0.0000  0.0000  0.0000  0.0000  0.0000  0.0000  0.0000  0.0000  0.0000  0.0000
  o =  0.5311  v =  0.0000  0.0000  0.0000  1.0000  0.0000  0.0000  0.0000  0.0000  0.0000  0.0000      0.0000  0.0000  0.0000  0.0000  0.0000  0.0000  0.0000  0.0000  0.0000  0.0000
  o =  0.5311  v =  0.0000  0.0000  0.0000  0.0000  1.0000  0.0000  0.0000  0.0000  0.0000  0.0000      0.0000  0.0000  0.0000  0.0000  0.0000  0.0000  0.0000  0.0000  0.0000  0.0000
atom =   4  type =  1  l = 2
 
 onsite density matrix
 
spin component  1
 
  0.2516  0.0000  0.0000  0.0000  0.0000      0.0000  0.0000  0.0000  0.0000  0.0000
  0.0000  0.2516  0.0000  0.0000  0.0000      0.0000  0.0000  0.0000  0.0000  0.0000
  0.0000  0.0000  0.2516  0.0000  0.0000      0.0000  0.0000  0.0000  0.0000  0.0000
  0.0000  0.0000  0.0000  0.2516  0.0000      0.0000  0.0000  0.0000  0.0000  0.0000
  0.0000  0.0000  0.0000  0.0000  0.2516      0.0000  0.0000  0.0000  0.0000  0.0000
 
spin component  2
 
  0.0000  0.0000  0.0000  0.0000  0.0000      0.0000  0.0000  0.0000  0.0000  0.0000
  0.0000  0.0000  0.0000  0.0000  0.0000      0.0000  0.0000  0.0000  0.0000  0.0000
  0.0000  0.0000  0.0000  0.0000  0.0000      0.0000  0.0000  0.0000  0.0000  0.0000
  0.0000  0.0000  0.0000  0.0000  0.0000      0.0000  0.0000  0.0000  0.0000  0.0000
  0.0000  0.0000  0.0000  0.0000  0.0000      0.0000  0.0000  0.0000  0.0000  0.0000
 
spin component  3
 
  0.0000  0.0000  0.0000  0.0000  0.0000      0.0000  0.0000  0.0000  0.0000  0.0000
  0.0000  0.0000  0.0000  0.0000  0.0000      0.0000  0.0000  0.0000  0.0000  0.0000
  0.0000  0.0000  0.0000  0.0000  0.0000      0.0000  0.0000  0.0000  0.0000  0.0000
  0.0000  0.0000  0.0000  0.0000  0.0000      0.0000  0.0000  0.0000  0.0000  0.0000
  0.0000  0.0000  0.0000  0.0000  0.0000      0.0000  0.0000  0.0000  0.0000  0.0000
 
spin component  4
 
  0.5311  0.0000  0.0000  0.0000  0.0000      0.0000  0.0000  0.0000  0.0000  0.0000
  0.0000  0.5311  0.0000  0.0000  0.0000      0.0000  0.0000  0.0000  0.0000  0.0000
  0.0000  0.0000  0.5311  0.0000  0.0000      0.0000  0.0000  0.0000  0.0000  0.0000
  0.0000  0.0000  0.0000  0.5311  0.0000      0.0000  0.0000  0.0000  0.0000  0.0000
  0.0000  0.0000  0.0000  0.0000  0.5311      0.0000  0.0000  0.0000  0.0000  0.0000
 
spin    1
   0.68008   0.00000   0.00000   0.00000   0.00000   0.00000   0.00000   0.00000   0.00000   0.00000   0.00000   0.00000   0.00000   0.00000   0.00000   0.00000   0.00000   0.00000
   0.00000   0.63171   0.00000   0.00000   0.00000   0.00000   0.00000   0.00000   0.00000   0.00000   0.00000   0.00000   0.00000   0.00000   0.00000   0.00000   0.00000   0.00000
   0.00000   0.00000   0.63171   0.00000   0.00000   0.00000   0.00000   0.00000   0.00000   0.00000   0.00000   0.00000   0.00000   0.00000   0.00000   0.00000   0.00000   0.00000
   0.00000   0.00000   0.00000   0.63171   0.00000   0.00000   0.00000   0.00000   0.00000   0.00000   0.00000   0.00000   0.00000   0.00000   0.00000   0.00000   0.00000   0.00000
   0.00000   0.00000   0.00000   0.00000   0.25157   0.00000   0.00000   0.00000   0.00000   0.00000   0.00000   0.00000   0.00000   0.00000   0.00000   0.00000   0.00000   0.00000
   0.00000   0.00000   0.00000   0.00000   0.00000   0.25157   0.00000   0.00000   0.00000   0.00000   0.00000   0.00000   0.00000   0.00000   0.00000   0.00000   0.00000   0.00000
   0.00000   0.00000   0.00000   0.00000   0.00000   0.00000   0.25157   0.00000   0.00000   0.00000   0.00000   0.00000   0.00000   0.00000   0.00000   0.00000   0.00000   0.00000
   0.00000   0.00000   0.00000   0.00000   0.00000   0.00000   0.00000   0.25157   0.00000   0.00000   0.00000   0.00000   0.00000   0.00000   0.00000   0.00000   0.00000   0.00000
   0.00000   0.00000   0.00000   0.00000   0.00000   0.00000   0.00000   0.00000   0.25157   0.00000   0.00000   0.00000   0.00000   0.00000   0.00000   0.00000   0.00000   0.00000
spin    2
   0.00000   0.00000   0.00000   0.00000   0.00000   0.00000   0.00000   0.00000   0.00000   0.00000   0.00000   0.00000   0.00000   0.00000   0.00000   0.00000   0.00000   0.00000
   0.00000   0.00000   0.00000   0.00000   0.00000   0.00000   0.00000   0.00000   0.00000   0.00000   0.00000   0.00000   0.00000   0.00000   0.00000   0.00000   0.00000   0.00000
   0.00000   0.00000   0.00000   0.00000   0.00000   0.00000   0.00000   0.00000   0.00000   0.00000   0.00000   0.00000   0.00000   0.00000   0.00000   0.00000   0.00000   0.00000
   0.00000   0.00000   0.00000   0.00000   0.00000   0.00000   0.00000   0.00000   0.00000   0.00000   0.00000   0.00000   0.00000   0.00000   0.00000   0.00000   0.00000   0.00000
   0.00000   0.00000   0.00000   0.00000   0.00000   0.00000   0.00000   0.00000   0.00000   0.00000   0.00000   0.00000   0.00000   0.00000   0.00000   0.00000   0.00000   0.00000
   0.00000   0.00000   0.00000   0.00000   0.00000   0.00000   0.00000   0.00000   0.00000   0.00000   0.00000   0.00000   0.00000   0.00000   0.00000   0.00000   0.00000   0.00000
   0.00000   0.00000   0.00000   0.00000   0.00000   0.00000   0.00000   0.00000   0.00000   0.00000   0.00000   0.00000   0.00000   0.00000   0.00000   0.00000   0.00000   0.00000
   0.00000   0.00000   0.00000   0.00000   0.00000   0.00000   0.00000   0.00000   0.00000   0.00000   0.00000   0.00000   0.00000   0.00000   0.00000   0.00000   0.00000   0.00000
   0.00000   0.00000   0.00000   0.00000   0.00000   0.00000   0.00000   0.00000   0.00000   0.00000   0.00000   0.00000   0.00000   0.00000   0.00000   0.00000   0.00000   0.00000
spin    3
   0.00000   0.00000   0.00000   0.00000   0.00000   0.00000   0.00000   0.00000   0.00000   0.00000   0.00000   0.00000   0.00000   0.00000   0.00000   0.00000   0.00000   0.00000
   0.00000   0.00000   0.00000   0.00000   0.00000   0.00000   0.00000   0.00000   0.00000   0.00000   0.00000   0.00000   0.00000   0.00000   0.00000   0.00000   0.00000   0.00000
   0.00000   0.00000   0.00000   0.00000   0.00000   0.00000   0.00000   0.00000   0.00000   0.00000   0.00000   0.00000   0.00000   0.00000   0.00000   0.00000   0.00000   0.00000
   0.00000   0.00000   0.00000   0.00000   0.00000   0.00000   0.00000   0.00000   0.00000   0.00000   0.00000   0.00000   0.00000   0.00000   0.00000   0.00000   0.00000   0.00000
   0.00000   0.00000   0.00000   0.00000   0.00000   0.00000   0.00000   0.00000   0.00000   0.00000   0.00000   0.00000   0.00000   0.00000   0.00000   0.00000   0.00000   0.00000
   0.00000   0.00000   0.00000   0.00000   0.00000   0.00000   0.00000   0.00000   0.00000   0.00000   0.00000   0.00000   0.00000   0.00000   0.00000   0.00000   0.00000   0.00000
   0.00000   0.00000   0.00000   0.00000   0.00000   0.00000   0.00000   0.00000   0.00000   0.00000   0.00000   0.00000   0.00000   0.00000   0.00000   0.00000   0.00000   0.00000
   0.00000   0.00000   0.00000   0.00000   0.00000   0.00000   0.00000   0.00000   0.00000   0.00000   0.00000   0.00000   0.00000   0.00000   0.00000   0.00000   0.00000   0.00000
   0.00000   0.00000   0.00000   0.00000   0.00000   0.00000   0.00000   0.00000   0.00000   0.00000   0.00000   0.00000   0.00000   0.00000   0.00000   0.00000   0.00000   0.00000
spin    4
   1.43573   0.00000   0.00000   0.00000   0.00000   0.00000   0.00000   0.00000   0.00000   0.00000   0.00000   0.00000   0.00000   0.00000   0.00000   0.00000   0.00000   0.00000
   0.00000   1.33360   0.00000   0.00000   0.00000   0.00000   0.00000   0.00000   0.00000   0.00000   0.00000   0.00000   0.00000   0.00000   0.00000   0.00000   0.00000   0.00000
   0.00000   0.00000   1.33360   0.00000   0.00000   0.00000   0.00000   0.00000   0.00000   0.00000   0.00000   0.00000   0.00000   0.00000   0.00000   0.00000   0.00000   0.00000
   0.00000   0.00000   0.00000   1.33360   0.00000   0.00000   0.00000   0.00000   0.00000   0.00000   0.00000   0.00000   0.00000   0.00000   0.00000   0.00000   0.00000   0.00000
   0.00000   0.00000   0.00000   0.00000   0.53109   0.00000   0.00000   0.00000   0.00000   0.00000   0.00000   0.00000   0.00000   0.00000   0.00000   0.00000   0.00000   0.00000
   0.00000   0.00000   0.00000   0.00000   0.00000   0.53109   0.00000   0.00000   0.00000   0.00000   0.00000   0.00000   0.00000   0.00000   0.00000   0.00000   0.00000   0.00000
   0.00000   0.00000   0.00000   0.00000   0.00000   0.00000   0.53109   0.00000   0.00000   0.00000   0.00000   0.00000   0.00000   0.00000   0.00000   0.00000   0.00000   0.00000
   0.00000   0.00000   0.00000   0.00000   0.00000   0.00000   0.00000   0.53109   0.00000   0.00000   0.00000   0.00000   0.00000   0.00000   0.00000   0.00000   0.00000   0.00000
   0.00000   0.00000   0.00000   0.00000   0.00000   0.00000   0.00000   0.00000   0.53109   0.00000   0.00000   0.00000   0.00000   0.00000   0.00000   0.00000   0.00000   0.00000
 occupancies and eigenvectors
 
  o =  0.2516  v =  1.0000  0.0000  0.0000  0.0000  0.0000  0.0000  0.0000  0.0000  0.0000  0.0000      0.0000  0.0000  0.0000  0.0000  0.0000  0.0000  0.0000  0.0000  0.0000  0.0000
  o =  0.2516  v =  0.0000  1.0000  0.0000  0.0000  0.0000  0.0000  0.0000  0.0000  0.0000  0.0000      0.0000  0.0000  0.0000  0.0000  0.0000  0.0000  0.0000  0.0000  0.0000  0.0000
  o =  0.2516  v =  0.0000  0.0000  1.0000  0.0000  0.0000  0.0000  0.0000  0.0000  0.0000  0.0000      0.0000  0.0000  0.0000  0.0000  0.0000  0.0000  0.0000  0.0000  0.0000  0.0000
  o =  0.2516  v =  0.0000  0.0000  0.0000  1.0000  0.0000  0.0000  0.0000  0.0000  0.0000  0.0000      0.0000  0.0000  0.0000  0.0000  0.0000  0.0000  0.0000  0.0000  0.0000  0.0000
  o =  0.2516  v =  0.0000  0.0000  0.0000  0.0000  1.0000  0.0000  0.0000  0.0000  0.0000  0.0000      0.0000  0.0000  0.0000  0.0000  0.0000  0.0000  0.0000  0.0000  0.0000  0.0000
  o =  0.5311  v =  0.0000  0.0000  0.0000  0.0000  0.0000  1.0000  0.0000  0.0000  0.0000  0.0000      0.0000  0.0000  0.0000  0.0000  0.0000  0.0000  0.0000  0.0000  0.0000  0.0000
  o =  0.5311  v =  0.0000  0.0000  0.0000  0.0000  0.0000  0.0000  1.0000  0.0000  0.0000  0.0000      0.0000  0.0000  0.0000  0.0000  0.0000  0.0000  0.0000  0.0000  0.0000  0.0000
  o =  0.5311  v =  0.0000  0.0000  0.0000  0.0000  0.0000  0.0000  0.0000  1.0000  0.0000  0.0000      0.0000  0.0000  0.0000  0.0000  0.0000  0.0000  0.0000  0.0000  0.0000  0.0000
  o =  0.5311  v =  0.0000  0.0000  0.0000  0.0000  0.0000  0.0000  0.0000  0.0000  1.0000  0.0000      0.0000  0.0000  0.0000  0.0000  0.0000  0.0000  0.0000  0.0000  0.0000  0.0000
  o =  0.5311  v =  0.0000  0.0000  0.0000  0.0000  0.0000  0.0000  0.0000  0.0000  0.0000  1.0000      0.0000  0.0000  0.0000  0.0000  0.0000  0.0000  0.0000  0.0000  0.0000  0.0000
atom =   5  type =  2  l = 1
 
 onsite density matrix
 
spin component  1
 
[...]
  -0.00000   0.00000   0.00000   1.00390   0.00057  -0.00000  -0.00000   0.00043   0.00033  -0.00000  -0.00112  -0.00000   0.00000  -0.00001  -0.00002  -0.00007  -0.00001  -0.00008
   0.00000  -0.00033  -0.00000   0.00057   0.08022   0.01032   0.00000   0.05622  -0.00000  -0.00000  -0.00008   0.00002   0.00001  -0.00000  -0.00022  -0.00000   0.00003  -0.00070
   0.00000   0.00043  -0.00000  -0.00000   0.01032   0.12485   0.00000   0.00000   0.05622   0.00000   0.00001   0.00001   0.00002   0.00022  -0.00000  -0.00001  -0.00070  -0.00003
  -0.00030  -0.00000   0.00036  -0.00000   0.00000   0.00000   0.05224   0.00000  -0.00000   0.00000   0.00001  -0.00000   0.00007   0.00000   0.00001  -0.00000  -0.00000  -0.00000
   0.00000  -0.00000   0.00000   0.00043   0.05622   0.00000   0.00000   0.12485  -0.01032  -0.00000  -0.00002   0.00004   0.00001  -0.00003   0.00070   0.00000  -0.00000  -0.00022
  -0.00000   0.00057   0.00000   0.00033  -0.00000   0.05622  -0.00000  -0.01032   0.08022   0.00000   0.00001  -0.00000   0.00008   0.00070   0.00003   0.00000   0.00022  -0.00000
atom    4spin    1
   1.06452   0.00000  -0.00022  -0.00000   0.00000   0.00000  -0.00030   0.00000  -0.00000   0.00000   0.00000  -0.00000   0.00000   0.00000  -0.00000  -0.00000  -0.00000   0.00000
   0.00000   1.00390  -0.00000  -0.00000   0.00033  -0.00043   0.00000   0.00000   0.00057  -0.00000   0.00000  -0.00000  -0.00112  -0.00008   0.00001  -0.00001   0.00002  -0.00001
  -0.00022  -0.00000   1.00344   0.00000   0.00000   0.00000  -0.00036   0.00000  -0.00000   0.00000   0.00000  -0.00000   0.00000  -0.00002  -0.00001  -0.00000   0.00004   0.00000
  -0.00000  -0.00000   0.00000   1.00390   0.00057   0.00000  -0.00000  -0.00043  -0.00033  -0.00000   0.00112  -0.00000   0.00000  -0.00001  -0.00002   0.00007   0.00001   0.00008
   0.00000   0.00033   0.00000   0.00057   0.08022   0.01032   0.00000  -0.05622  -0.00000  -0.00000   0.00008   0.00002   0.00001   0.00000  -0.00022  -0.00000  -0.00003   0.00070
   0.00000  -0.00043   0.00000   0.00000   0.01032   0.12485   0.00000   0.00000  -0.05622   0.00000  -0.00001   0.00001   0.00002   0.00022   0.00000  -0.00000   0.00070   0.00003
  -0.00030   0.00000  -0.00036  -0.00000   0.00000   0.00000   0.05224  -0.00000   0.00000   0.00000   0.00001   0.00000  -0.00007   0.00000   0.00000   0.00000   0.00000   0.00000
   0.00000   0.00000   0.00000  -0.00043  -0.05622   0.00000  -0.00000   0.12485  -0.01032   0.00000  -0.00002  -0.00004  -0.00001   0.00003  -0.00070  -0.00000   0.00000  -0.00022
  -0.00000   0.00057  -0.00000  -0.00033  -0.00000  -0.05622   0.00000  -0.01032   0.08022  -0.00000   0.00001  -0.00000  -0.00008  -0.00070  -0.00003  -0.00000   0.00022   0.00000
atom    4spin    2
   0.00000  -0.00000   0.00000   0.00000   0.00000   0.00001  -0.00000  -0.00000  -0.00001   0.00000  -0.00000  -0.00000  -0.00000  -0.00001   0.00000   0.00000   0.00001  -0.00000
  -0.00000   0.00001   0.00000   0.00000   0.00005  -0.00000   0.00000  -0.00002  -0.00000  -0.00001   0.00000   0.00110  -0.00001   0.00000   0.00003   0.00005  -0.00000   0.00005
   0.00000   0.00000   0.00000   0.00109   0.00003  -0.00001  -0.00000   0.00000   0.00000  -0.00000  -0.00109   0.00000   0.00000   0.00001  -0.00000  -0.00000  -0.00001  -0.00003
   0.00001   0.00000  -0.00110  -0.00000   0.00000   0.00003  -0.00005   0.00000   0.00001  -0.00000  -0.00001   0.00000  -0.00000  -0.00001   0.00001   0.00000  -0.00003   0.00000
   0.00000   0.00002  -0.00002  -0.00000   0.00072   0.00313   0.00386   0.00027  -0.00188  -0.00000  -0.00000  -0.00000  -0.00005   0.00192   0.00016   0.00080  -0.00312   0.00056
   0.00001  -0.00000   0.00000  -0.00002  -0.00196  -0.00031   0.00001   0.00176  -0.00009   0.00000  -0.00001  -0.00002  -0.00000   0.00018   0.00179  -0.00388   0.00041  -0.00192
  -0.00000  -0.00000  -0.00000  -0.00002  -0.00100   0.00013   0.00019  -0.00863  -0.00007   0.00000   0.00002  -0.00000  -0.00000  -0.00007   0.00863   0.00005   0.00013   0.00100
  -0.00000   0.00003   0.00002  -0.00000   0.00028   0.00176   0.00388   0.00050  -0.00192   0.00001   0.00001   0.00000   0.00001   0.00196   0.00040   0.00001  -0.00173   0.00019
  -0.00000   0.00000  -0.00000   0.00005  -0.00187  -0.00007   0.00080   0.00316  -0.00040  -0.00000   0.00002   0.00001  -0.00000   0.00055   0.00317  -0.00386   0.00017  -0.00183
atom    4spin    3
   0.00000  -0.00000   0.00000   0.00001   0.00000   0.00001  -0.00000  -0.00000  -0.00000  -0.00000   0.00001   0.00000   0.00000   0.00000  -0.00000  -0.00000  -0.00001   0.00000
  -0.00000   0.00001   0.00000   0.00000   0.00002  -0.00000  -0.00000   0.00003   0.00000   0.00000  -0.00000   0.00109   0.00001   0.00000   0.00001  -0.00002  -0.00001  -0.00002
   0.00000   0.00000   0.00000  -0.00110  -0.00002   0.00000  -0.00000   0.00002  -0.00000   0.00000  -0.00110  -0.00000  -0.00000   0.00000   0.00002   0.00000  -0.00000  -0.00001
   0.00000   0.00000   0.00109  -0.00000  -0.00000  -0.00002  -0.00002  -0.00000   0.00005   0.00000   0.00001  -0.00000   0.00000   0.00005   0.00000   0.00000  -0.00001   0.00000
   0.00000   0.00005   0.00003   0.00000   0.00072  -0.00196  -0.00100   0.00028  -0.00187   0.00001  -0.00000  -0.00001   0.00001  -0.00192  -0.00018   0.00007  -0.00196  -0.00055
   0.00001  -0.00000  -0.00001   0.00003   0.00313  -0.00031   0.00013   0.00176  -0.00007  -0.00000  -0.00003   0.00000  -0.00001  -0.00016  -0.00179  -0.00863  -0.00040  -0.00317
  -0.00000   0.00000  -0.00000  -0.00005   0.00386   0.00001   0.00019   0.00388   0.00080  -0.00000  -0.00005   0.00000  -0.00000  -0.00080   0.00388  -0.00005  -0.00001   0.00386
  -0.00000  -0.00002   0.00000   0.00000   0.00027   0.00176  -0.00863   0.00050   0.00316  -0.00001   0.00000   0.00001   0.00003   0.00312  -0.00041  -0.00013   0.00173  -0.00017
  -0.00001  -0.00000   0.00000   0.00001  -0.00188  -0.00009  -0.00007  -0.00192  -0.00040   0.00000  -0.00005   0.00003  -0.00000  -0.00056   0.00192  -0.00100  -0.00019   0.00183
atom    4spin    4
   1.07123   0.00000  -0.00075   0.00000   0.00000  -0.00000   0.00005   0.00000  -0.00000  -0.00000   0.00000  -0.00000  -0.00000  -0.00000   0.00000   0.00000   0.00000  -0.00000
   0.00000   1.00757  -0.00000   0.00000   0.00106  -0.00122  -0.00000  -0.00000  -0.00085  -0.00000  -0.00000  -0.00000   0.00106  -0.00000   0.00000  -0.00001  -0.00004  -0.00001
  -0.00075  -0.00000   1.00770   0.00000  -0.00000   0.00000  -0.00343  -0.00000   0.00000   0.00000   0.00000  -0.00000   0.00000   0.00004  -0.00001   0.00000   0.00000   0.00000
   0.00000   0.00000   0.00000   1.00757  -0.00085  -0.00000   0.00000  -0.00122  -0.00106   0.00000  -0.00106  -0.00000  -0.00000  -0.00001   0.00004   0.00000   0.00000   0.00000
   0.00000   0.00106  -0.00000  -0.00085   0.64978  -0.05767  -0.00000   0.30385   0.00000   0.00000   0.00000  -0.00004   0.00001  -0.00000   0.00223   0.00000   0.00035  -0.00720
  -0.00000  -0.00122   0.00000  -0.00000  -0.05767   0.44061  -0.00000  -0.00000   0.30385  -0.00000  -0.00000   0.00001  -0.00004  -0.00223  -0.00000   0.00000  -0.00688  -0.00035
   0.00005  -0.00000  -0.00343   0.00000  -0.00000  -0.00000   0.86380   0.00000   0.00000  -0.00000   0.00001  -0.00000  -0.00000  -0.00000  -0.00000  -0.00000  -0.00000  -0.00000
   0.00000  -0.00000  -0.00000  -0.00122   0.30385  -0.00000   0.00000   0.44061   0.05767  -0.00000   0.00004  -0.00000  -0.00000  -0.00035   0.00688   0.00000  -0.00000   0.00223
  -0.00000  -0.00085   0.00000  -0.00106   0.00000   0.30385   0.00000   0.05767   0.64978   0.00000   0.00001  -0.00000  -0.00000   0.00720   0.00035   0.00000  -0.00223  -0.00000
atom    5spin    1
   0.78026   0.00373   0.00341   0.00592  -0.00000  -0.00004  -0.00002   0.00005
   0.00373   0.59020   0.01736   0.00889   0.00004   0.00000  -0.00018   0.00035
   0.00341   0.01736   0.59375  -0.01219   0.00002   0.00018   0.00000   0.00014
   0.00592   0.00889  -0.01219   0.60066  -0.00005  -0.00035  -0.00014  -0.00000
atom    5spin    2
  -0.00001   0.00001   0.00007  -0.00006  -0.00000   0.00000  -0.00011   0.00002
   0.00001  -0.00002   0.00013  -0.00026   0.00005   0.00013  -0.00049  -0.00022
   0.00005   0.00001  -0.00032  -0.00041  -0.00012   0.00072  -0.00019  -0.00000
  -0.00002  -0.00012   0.00067   0.00037  -0.00003  -0.00015  -0.00012   0.00007
atom    5spin    3
  -0.00001   0.00001   0.00005  -0.00002   0.00000  -0.00005   0.00012   0.00003
   0.00001  -0.00002   0.00001  -0.00012  -0.00000  -0.00013  -0.00072   0.00015
   0.00007   0.00013  -0.00032   0.00067   0.00011   0.00049   0.00019   0.00012
  -0.00006  -0.00026  -0.00041   0.00037  -0.00002   0.00022   0.00000  -0.00007
atom    5spin    4
   0.78026  -0.00699  -0.00341  -0.00027   0.00000  -0.00003   0.00002   0.00006
  -0.00699   0.60575  -0.00188  -0.00009   0.00003   0.00000  -0.00021  -0.00035
  -0.00341  -0.00188   0.59375   0.02113  -0.00002   0.00021  -0.00000   0.00008
  -0.00027  -0.00009   0.02113   0.58512  -0.00006   0.00035  -0.00008   0.00000
atom    6spin    1
   0.78026   0.00699   0.00341   0.00027   0.00000  -0.00003   0.00002   0.00006
   0.00699   0.60575  -0.00188  -0.00009   0.00003   0.00000   0.00021   0.00035
   0.00341  -0.00188   0.59375   0.02113  -0.00002  -0.00021  -0.00000  -0.00008
   0.00027  -0.00009   0.02113   0.58512  -0.00006  -0.00035   0.00008  -0.00000
atom    6spin    2
   0.00001   0.00001   0.00006  -0.00002   0.00000   0.00005  -0.00012  -0.00003
   0.00001   0.00001  -0.00001   0.00013   0.00000  -0.00014  -0.00072   0.00015
   0.00008  -0.00013   0.00032  -0.00066  -0.00011   0.00049   0.00019   0.00013
  -0.00006   0.00026   0.00042  -0.00036   0.00002   0.00022   0.00001  -0.00007
atom    6spin    3
   0.00001   0.00001   0.00008  -0.00006  -0.00000  -0.00000   0.00011  -0.00002
   0.00001   0.00001  -0.00013   0.00026  -0.00005   0.00014  -0.00049  -0.00022
   0.00006  -0.00001   0.00032   0.00042   0.00012   0.00072  -0.00019  -0.00001
  -0.00002   0.00013  -0.00066  -0.00036   0.00003  -0.00015  -0.00013   0.00007
atom    6spin    4
   0.78026  -0.00373  -0.00341  -0.00592  -0.00000  -0.00004  -0.00002   0.00005
  -0.00373   0.59020   0.01736   0.00889   0.00004  -0.00000   0.00018  -0.00035
  -0.00341   0.01736   0.59375  -0.01219   0.00002  -0.00018   0.00000  -0.00014
  -0.00592   0.00889  -0.01219   0.60066  -0.00005   0.00035   0.00014   0.00000
atom    7spin    1
   0.78026   0.00326   0.00341  -0.00619   0.00000   0.00007  -0.00002   0.00001
   0.00326   0.59035  -0.01924  -0.00898  -0.00007  -0.00000  -0.00003   0.00035
   0.00341  -0.01924   0.59375  -0.00894   0.00002   0.00003  -0.00000  -0.00022
  -0.00619  -0.00898  -0.00894   0.60051  -0.00001  -0.00035   0.00022   0.00000
atom    7spin    2
  -0.00000   0.00004  -0.00013  -0.00002   0.00001   0.00004  -0.00001  -0.00001
  -0.00004   0.00000  -0.00013   0.00013   0.00004  -0.00050  -0.00049   0.00008
  -0.00013  -0.00013   0.00001  -0.00065   0.00001   0.00051   0.00037   0.00014
  -0.00002   0.00013   0.00064  -0.00001   0.00001  -0.00008   0.00014   0.00010
atom    7spin    3
  -0.00000  -0.00004  -0.00013  -0.00002  -0.00001  -0.00004  -0.00001  -0.00001
   0.00004   0.00000  -0.00013   0.00013  -0.00004   0.00050  -0.00051   0.00008
  -0.00013  -0.00013   0.00001   0.00064   0.00001   0.00049  -0.00037  -0.00014
  -0.00002   0.00013  -0.00065  -0.00001   0.00001  -0.00008  -0.00014  -0.00010
atom    7spin    4
   0.78026   0.00326  -0.00341   0.00619  -0.00000   0.00007   0.00002  -0.00001
   0.00326   0.59035   0.01924   0.00898  -0.00007  -0.00000   0.00003  -0.00035
  -0.00341   0.01924   0.59375  -0.00894  -0.00002  -0.00003   0.00000  -0.00022
   0.00619   0.00898  -0.00894   0.60051   0.00001   0.00035   0.00022   0.00000
atom    8spin    1
   0.78026  -0.00326   0.00341  -0.00619   0.00000   0.00007   0.00002  -0.00001
  -0.00326   0.59035   0.01924   0.00898  -0.00007  -0.00000  -0.00003   0.00035
   0.00341   0.01924   0.59375  -0.00894  -0.00002   0.00003  -0.00000   0.00022
  -0.00619   0.00898  -0.00894   0.60051   0.00001  -0.00035  -0.00022  -0.00000
atom    8spin    2
  -0.00000  -0.00004  -0.00013  -0.00002  -0.00001   0.00004   0.00001   0.00001
   0.00004  -0.00000   0.00014  -0.00014   0.00004   0.00050  -0.00051   0.00007
  -0.00013   0.00014  -0.00001  -0.00064  -0.00001   0.00050  -0.00037  -0.00015
  -0.00002  -0.00014   0.00064   0.00001  -0.00001  -0.00008  -0.00015  -0.00010
atom    8spin    3
  -0.00000   0.00004  -0.00013  -0.00002   0.00001  -0.00004   0.00001   0.00001
  -0.00004  -0.00000   0.00014  -0.00014  -0.00004  -0.00050  -0.00050   0.00008
  -0.00013   0.00014  -0.00001   0.00064  -0.00001   0.00051   0.00037   0.00015
  -0.00002  -0.00014  -0.00064   0.00001  -0.00001  -0.00007   0.00015   0.00010
atom    8spin    4
   0.78026  -0.00326  -0.00341   0.00619  -0.00000   0.00007  -0.00002   0.00001
  -0.00326   0.59035  -0.01924  -0.00898  -0.00007   0.00000   0.00003  -0.00035
  -0.00341  -0.01924   0.59375  -0.00894   0.00002  -0.00003   0.00000   0.00022
   0.00619  -0.00898  -0.00894   0.60051  -0.00001   0.00035  -0.00022   0.00000
atom    9spin    1
   0.78026  -0.00699   0.00341   0.00027  -0.00000  -0.00003  -0.00002  -0.00006
  -0.00699   0.60575   0.00188   0.00009   0.00003   0.00000   0.00021   0.00035
   0.00341   0.00188   0.59375   0.02113   0.00002  -0.00021  -0.00000   0.00008
   0.00027   0.00009   0.02113   0.58512   0.00006  -0.00035  -0.00008   0.00000
atom    9spin    2
   0.00001  -0.00000   0.00005  -0.00001  -0.00000   0.00005   0.00012   0.00003
  -0.00001   0.00001   0.00000  -0.00012   0.00001   0.00013  -0.00073   0.00015
   0.00007   0.00012   0.00033  -0.00066   0.00010   0.00048  -0.00019  -0.00014
  -0.00006  -0.00025   0.00042  -0.00037  -0.00002   0.00022  -0.00002   0.00008
atom    9spin    3
   0.00001  -0.00001   0.00007  -0.00006   0.00000  -0.00001  -0.00010   0.00002
  -0.00000   0.00001   0.00012  -0.00025  -0.00005  -0.00013  -0.00048  -0.00022
   0.00005   0.00000   0.00033   0.00042  -0.00012   0.00073   0.00019   0.00002
  -0.00001  -0.00012  -0.00066  -0.00037  -0.00003  -0.00015   0.00014  -0.00008
atom    9spin    4
   0.78026   0.00373  -0.00341  -0.00592   0.00000  -0.00004   0.00002  -0.00005
   0.00373   0.59020  -0.01736  -0.00889   0.00004  -0.00000   0.00018  -0.00035
  -0.00341  -0.01736   0.59375  -0.01219  -0.00002  -0.00018   0.00000   0.00014
  -0.00592  -0.00889  -0.01219   0.60066   0.00005   0.00035  -0.00014   0.00000
atom   10spin    1
   0.78026  -0.00373   0.00341   0.00592   0.00000  -0.00004   0.00002  -0.00005
  -0.00373   0.59020  -0.01736  -0.00889   0.00004  -0.00000  -0.00018   0.00035
   0.00341  -0.01736   0.59375  -0.01219  -0.00002   0.00018   0.00000  -0.00014
   0.00592  -0.00889  -0.01219   0.60066   0.00005  -0.00035   0.00014  -0.00000
atom   10spin    2
  -0.00001  -0.00001   0.00008  -0.00006   0.00000   0.00001   0.00011  -0.00002
  -0.00000   0.00000  -0.00013   0.00025   0.00005  -0.00013  -0.00049  -0.00022
   0.00006  -0.00001  -0.00033  -0.00042   0.00012   0.00073   0.00019   0.00002
  -0.00001   0.00012   0.00066   0.00036   0.00003  -0.00015   0.00014  -0.00008
atom   10spin    3
  -0.00001  -0.00000   0.00006  -0.00001  -0.00000  -0.00005  -0.00012  -0.00003
  -0.00001   0.00000  -0.00001   0.00012  -0.00001   0.00013  -0.00073   0.00015
   0.00008  -0.00013  -0.00033   0.00066  -0.00011   0.00049  -0.00019  -0.00014
  -0.00006   0.00025  -0.00042   0.00036   0.00002   0.00022  -0.00002   0.00008
atom   10spin    4
   0.78026   0.00699  -0.00341  -0.00027   0.00000  -0.00003  -0.00002  -0.00006
   0.00699   0.60575   0.00188   0.00009   0.00003   0.00000  -0.00021  -0.00035
  -0.00341   0.00188   0.59375   0.02113   0.00002   0.00021  -0.00000  -0.00008
  -0.00027   0.00009   0.02113   0.58512   0.00006   0.00035   0.00008  -0.00000
atom    1
atom    2
atom    3
atom    4
atom    5
atom    6
atom    7
atom    8
atom    9
atom   10
 


 total charge     
 
# of ion     s       p       d       tot
----------------------------------------
  1        2.128   6.024   3.482  11.634
  2        2.128   6.024   3.482  11.634
  3        2.128   6.024   3.482  11.634
  4        2.128   6.024   3.482  11.634
  5        1.545   3.529   0.000   5.074
  6        1.545   3.529   0.000   5.074
  7        1.545   3.529   0.000   5.074
  8        1.545   3.529   0.000   5.074
  9        1.545   3.529   0.000   5.074
 10        1.545   3.529   0.000   5.074
------------------------------------------------
tot       17.781  45.270  13.929  76.980
 


 magnetization (x)
 
# of ion     s       p       d       tot
----------------------------------------
  1       -0.000  -0.000  -0.002  -0.002
  2        0.000   0.000   0.001   0.001
  3        0.000   0.000   0.003   0.003
  4        0.000   0.000   0.001   0.001
  5       -0.000   0.000   0.000   0.000
  6        0.000  -0.000   0.000  -0.000
  7       -0.000   0.000   0.000   0.000
  8       -0.000  -0.000   0.000  -0.000
  9        0.000  -0.000   0.000  -0.000
 10       -0.000   0.000   0.000   0.000
------------------------------------------------
tot        0.000   0.000   0.003   0.003
 


 magnetization (y)
 
# of ion     s       p       d       tot
----------------------------------------
  1       -0.000  -0.000  -0.000  -0.000
  2       -0.000  -0.000  -0.003  -0.003
  3       -0.000   0.000   0.000   0.001
  4       -0.000  -0.000  -0.000  -0.000
  5        0.000  -0.000   0.000  -0.000
  6       -0.000   0.000   0.000   0.000
  7       -0.000   0.000   0.000   0.000
  8        0.000  -0.000   0.000  -0.000
  9        0.000  -0.000   0.000  -0.000
 10       -0.000   0.000   0.000   0.000
------------------------------------------------
tot       -0.000  -0.000  -0.003  -0.003
 


 magnetization (z)
 
# of ion     s       p       d       tot
----------------------------------------
  1        0.006   0.011   2.571   2.589
  2       -0.006  -0.011  -2.571  -2.589
  3        0.006   0.011   2.571   2.589
  4       -0.006  -0.011  -2.571  -2.589
  5       -0.000   0.000   0.000   0.000
  6        0.000   0.000   0.000   0.000
  7        0.000  -0.000   0.000  -0.000
  8       -0.000   0.000   0.000  -0.000
  9       -0.000  -0.000   0.000  -0.000
 10       -0.000  -0.000   0.000  -0.000
------------------------------------------------
tot       -0.000  -0.000   0.000   0.000
 
 BZINTS: Fermi energy:  7.642941; 92.000000 electrons
         Band energy:***********;  BLOECHL correction:  0.000000
 BZINTS: Fermi energy:  7.642941; 92.000000 electrons
         Band energy:***********;  BLOECHL correction:  0.000000
 BZINTS: Fermi energy:  7.642941; 92.000000 electrons
         Band energy:***********;  BLOECHL correction:  0.000000
 BZINTS: Fermi energy:  7.642941; 92.000000 electrons
         Band energy:***********;  BLOECHL correction:  0.000000

 total amount of memory used by VASP on root node    58297. kBytes
========================================================================

   base      :      30000. kBytes
   nonl-proj :       5335. kBytes
   fftplans  :       2631. kBytes
   grid      :       2990. kBytes
   one-center:        138. kBytes
   wavefun   :      17203. kBytes
 
  
  
 General timing and accounting informations for this job:
 ========================================================
  
                  Total CPU time used (sec):      597.305
                            User time (sec):      587.199
                          System time (sec):       10.106
                         Elapsed time (sec):      694.254
  
                   Maximum memory used (kb):      126208.
                   Average memory used (kb):           0.
  
                          Minor page faults:       639459
                          Major page faults:           37
                 Voluntary context switches:        28488
